       N       E                     dE             d eps       ncg     rms          rms(c)
DAV:   1    -0.138459123247E+04   -0.13846E+04   -0.13395E+00  6208   0.982E-01    0.947E-01
DAV:   2    -0.138633033879E+04   -0.17391E+01   -0.11921E+00  6176   0.954E-01    0.410E-01
DAV:   3    -0.138634003721E+04   -0.96984E-02   -0.43369E-02  6656   0.230E-01    0.277E-01
DAV:   4    -0.138634009122E+04   -0.54004E-04   -0.22363E-03  5472   0.579E-02    0.224E-01
DAV:   5    -0.138634010204E+04   -0.10826E-04   -0.20920E-04  6592   0.183E-02    0.188E-01
DAV:   6    -0.138634011256E+04   -0.10513E-04   -0.23366E-05  6560   0.707E-03    0.163E-01
DAV:   7    -0.138634012034E+04   -0.77866E-05   -0.24804E-05  6464   0.832E-03    0.129E-01
DAV:   8    -0.138634012550E+04   -0.51589E-05   -0.17424E-05  6048   0.653E-03    0.106E-01
DAV:   9    -0.138634012970E+04   -0.41926E-05   -0.44180E-06  4000   0.336E-03    0.909E-02
DAV:  10    -0.138634013512E+04   -0.54202E-05   -0.24394E-05  6432   0.787E-03    0.540E-02
DAV:  11    -0.138634013916E+04   -0.40485E-05   -0.31321E-05  6688   0.902E-03    0.173E-02
DAV:  12    -0.138634014017E+04   -0.10086E-05   -0.37348E-06  3840   0.283E-03    0.966E-03
DAV:  13    -0.138634014040E+04   -0.22842E-06   -0.96520E-07  2944   0.150E-03
   1 F= -.14058208E+04 E0= -.14058208E+04  d E =-.513841E-21  mag=     0.0000
