 vasp.5.4.4.18Apr17-6-g9f103f2a35 (build Oct 18 2017 12:32:39) complex          
  
 executed on             LinuxIFC date 2021.10.31  20:25:11
 running on   48 total cores
 distrk:  each k-point on   48 cores,    1 groups
 distr:  one band on NCORES_PER_BAND=   6 cores,    8 groups


--------------------------------------------------------------------------------------------------------


 INCAR:
 POTCAR:    PAW_PBE Zr_sv 04Jan2005               
 POTCAR:    PAW_PBE O 08Apr2002                   
 POTCAR:    PAW_PBE H 15Jun2001                   
 POTCAR:    PAW_PBE C 08Apr2002                   
 POTCAR:    PAW_PBE Zr_sv 04Jan2005               
   VRHFIN =Zr: 4s4p5s4d                                                         
   LEXCH  = PE                                                                  
   EATOM  =  1284.2219 eV,   94.3876 Ry                                         
                                                                                
   TITEL  = PAW_PBE Zr_sv 04Jan2005                                             
   LULTRA =        F    use ultrasoft PP ?                                      
   IUNSCR =        1    unscreen: 0-lin 1-nonlin 2-no                           
   RPACOR =    2.200    partial core radius                                     
   POMASS =   91.224; ZVAL   =   12.000    mass and valenz                      
   RCORE  =    2.500    outmost cutoff radius                                   
   RWIGS  =    3.070; RWIGS  =    1.625    wigner-seitz radius (au A)           
   ENMAX  =  229.898; ENMIN  =  172.424 eV                                      
   ICORE  =        3    local potential                                         
   LCOR   =        T    correct aug charges                                     
   LPAW   =        T    paw PP                                                  
   EAUG   =  461.257                                                            
   DEXC   =    0.000                                                            
   RMAX   =    2.561    core radius for proj-oper                               
   RAUG   =    1.300    factor for augmentation sphere                          
   RDEP   =    2.597    radius for radial grids                                 
   RDEPT  =    2.007    core radius for aug-charge                              
                                                                                
   Atomic configuration                                                         
   11 entries                                                                   
     n  l   j            E        occ.                                          
     1  0  0.50    -17820.0161   2.0000                                         
     2  0  0.50     -2467.0882   2.0000                                         
     2  1  1.50     -2199.6095   6.0000                                         
     3  0  0.50      -402.4863   2.0000                                         
     3  1  1.50      -315.3675   6.0000                                         
     3  2  2.50      -172.4472  10.0000                                         
     4  0  0.50       -52.4146   2.0000                                         
     5  0  0.50        -3.8421   1.0000                                         
     4  1  1.50       -30.5054   6.0000                                         
     4  2  2.50        -2.3341   3.0000                                         
     4  3  2.50        -1.3606   0.0000                                         
   Description                                                                  
     l       E           TYP  RCUT    TYP  RCUT                                 
     0    -52.4145962     23  2.200                                             
     0     -3.8421270     23  2.500                                             
     1    -30.5053914     23  2.200                                             
     1     20.4087390     23  2.200                                             
     2     -2.3340816     23  2.500                                             
     2     -0.6120942     23  2.500                                             
     3     -4.0817478     23  2.500                                             
  local pseudopotential read in
  partial core-charges read in
  partial kinetic energy density read in
  atomic valenz-charges read in
  non local Contribution for L=           0  read in
    real space projection operators read in
  non local Contribution for L=           0  read in
    real space projection operators read in
  non local Contribution for L=           1  read in
    real space projection operators read in
  non local Contribution for L=           1  read in
    real space projection operators read in
  non local Contribution for L=           2  read in
    real space projection operators read in
  non local Contribution for L=           2  read in
    real space projection operators read in
    PAW grid and wavefunctions read in
 
   number of l-projection  operators is LMAX  =           6
   number of lm-projection operators is LMMAX =          18
 
 POTCAR:    PAW_PBE O 08Apr2002                   
   VRHFIN =O: s2p4                                                              
   LEXCH  = PE                                                                  
   EATOM  =   432.3788 eV,   31.7789 Ry                                         
                                                                                
   TITEL  = PAW_PBE O 08Apr2002                                                 
   LULTRA =        F    use ultrasoft PP ?                                      
   IUNSCR =        1    unscreen: 0-lin 1-nonlin 2-no                           
   RPACOR =    1.200    partial core radius                                     
   POMASS =   16.000; ZVAL   =    6.000    mass and valenz                      
   RCORE  =    1.520    outmost cutoff radius                                   
   RWIGS  =    1.550; RWIGS  =    0.820    wigner-seitz radius (au A)           
   ENMAX  =  400.000; ENMIN  =  300.000 eV                                      
   ICORE  =        2    local potential                                         
   LCOR   =        T    correct aug charges                                     
   LPAW   =        T    paw PP                                                  
   EAUG   =  605.392                                                            
   DEXC   =    0.000                                                            
   RMAX   =    1.553    core radius for proj-oper                               
   RAUG   =    1.300    factor for augmentation sphere                          
   RDEP   =    1.550    radius for radial grids                                 
   RDEPT  =    1.329    core radius for aug-charge                              
                                                                                
   Atomic configuration                                                         
    4 entries                                                                   
     n  l   j            E        occ.                                          
     1  0  0.50      -514.6923   2.0000                                         
     2  0  0.50       -23.9615   2.0000                                         
     2  1  0.50        -9.0305   4.0000                                         
     3  2  1.50        -9.5241   0.0000                                         
   Description                                                                  
     l       E           TYP  RCUT    TYP  RCUT                                 
     0    -23.9615318     23  1.200                                             
     0     -9.5240782     23  1.200                                             
     1     -9.0304911     23  1.520                                             
     1      8.1634956     23  1.520                                             
     2     -9.5240782      7  1.500                                             
  local pseudopotential read in
  partial core-charges read in
  partial kinetic energy density read in
  kinetic energy density of atom read in
  atomic valenz-charges read in
  non local Contribution for L=           0  read in
    real space projection operators read in
  non local Contribution for L=           0  read in
    real space projection operators read in
  non local Contribution for L=           1  read in
    real space projection operators read in
  non local Contribution for L=           1  read in
    real space projection operators read in
    PAW grid and wavefunctions read in
 
   number of l-projection  operators is LMAX  =           4
   number of lm-projection operators is LMMAX =           8
 
 POTCAR:    PAW_PBE H 15Jun2001                   
   VRHFIN =H: ultrasoft test                                                    
   LEXCH  = PE                                                                  
   EATOM  =    12.4884 eV,    0.9179 Ry                                         
                                                                                
   TITEL  = PAW_PBE H 15Jun2001                                                 
   LULTRA =        F    use ultrasoft PP ?                                      
   IUNSCR =        0    unscreen: 0-lin 1-nonlin 2-no                           
   RPACOR =    0.000    partial core radius                                     
   POMASS =    1.000; ZVAL   =    1.000    mass and valenz                      
   RCORE  =    1.100    outmost cutoff radius                                   
   RWIGS  =    0.700; RWIGS  =    0.370    wigner-seitz radius (au A)           
   ENMAX  =  250.000; ENMIN  =  200.000 eV                                      
   RCLOC  =    0.701    cutoff for local pot                                    
   LCOR   =        T    correct aug charges                                     
   LPAW   =        T    paw PP                                                  
   EAUG   =  400.000                                                            
   RMAX   =    1.123    core radius for proj-oper                               
   RAUG   =    1.200    factor for augmentation sphere                          
   RDEP   =    1.112    radius for radial grids                                 
   RDEPT  =    0.926    core radius for aug-charge                              
                                                                                
   Atomic configuration                                                         
    2 entries                                                                   
     n  l   j            E        occ.                                          
     1  0  0.50        -6.4927   1.0000                                         
     2  1  0.50        -3.4015   0.0000                                         
   Description                                                                  
     l       E           TYP  RCUT    TYP  RCUT                                 
     0     -6.4927494     23  1.100                                             
     0      6.8029130     23  1.100                                             
     1     -4.0817478     23  1.100                                             
  local pseudopotential read in
  atomic valenz-charges read in
  non local Contribution for L=           0  read in
    real space projection operators read in
  non local Contribution for L=           0  read in
    real space projection operators read in
  non local Contribution for L=           1  read in
    real space projection operators read in
    PAW grid and wavefunctions read in
 
   number of l-projection  operators is LMAX  =           3
   number of lm-projection operators is LMMAX =           5
 
 POTCAR:    PAW_PBE C 08Apr2002                   
   VRHFIN =C: s2p2                                                              
   LEXCH  = PE                                                                  
   EATOM  =   147.1560 eV,   10.8157 Ry                                         
                                                                                
   TITEL  = PAW_PBE C 08Apr2002                                                 
   LULTRA =        F    use ultrasoft PP ?                                      
   IUNSCR =        1    unscreen: 0-lin 1-nonlin 2-no                           
   RPACOR =    1.200    partial core radius                                     
   POMASS =   12.011; ZVAL   =    4.000    mass and valenz                      
   RCORE  =    1.500    outmost cutoff radius                                   
   RWIGS  =    1.630; RWIGS  =    0.863    wigner-seitz radius (au A)           
   ENMAX  =  400.000; ENMIN  =  300.000 eV                                      
   ICORE  =        2    local potential                                         
   LCOR   =        T    correct aug charges                                     
   LPAW   =        T    paw PP                                                  
   EAUG   =  644.873                                                            
   DEXC   =    0.000                                                            
   RMAX   =    1.529    core radius for proj-oper                               
   RAUG   =    1.300    factor for augmentation sphere                          
   RDEP   =    1.501    radius for radial grids                                 
   RDEPT  =    1.300    core radius for aug-charge                              
                                                                                
   Atomic configuration                                                         
    4 entries                                                                   
     n  l   j            E        occ.                                          
     1  0  0.50      -273.3789   2.0000                                         
     2  0  0.50       -13.7508   2.0000                                         
     2  1  0.50        -5.2854   2.0000                                         
     3  2  1.50        -5.4423   0.0000                                         
   Description                                                                  
     l       E           TYP  RCUT    TYP  RCUT                                 
     0    -13.7508458     23  1.200                                             
     0     -8.2022199     23  1.200                                             
     1     -5.2854383     23  1.500                                             
     1     34.0145650     23  1.500                                             
     2     -5.4423304      7  1.500                                             
  local pseudopotential read in
  partial core-charges read in
  partial kinetic energy density read in
  atomic valenz-charges read in
  non local Contribution for L=           0  read in
    real space projection operators read in
  non local Contribution for L=           0  read in
    real space projection operators read in
  non local Contribution for L=           1  read in
    real space projection operators read in
  non local Contribution for L=           1  read in
    real space projection operators read in
    PAW grid and wavefunctions read in
 
   number of l-projection  operators is LMAX  =           4
   number of lm-projection operators is LMMAX =           8
 
 Optimization of the real space projectors (new method)

 maximal supplied QI-value         = 15.12
 optimisation between [QCUT,QGAM] = [ 11.34, 22.83] = [ 36.00,145.93] Ry 
 Optimized for a Real-space Cutoff    1.47 Angstroem

   l    n(q)    QCUT    max X(q) W(low)/X(q) W(high)/X(q)  e(spline) 
   0     10    11.338    12.107    0.38E-04    0.13E-04    0.27E-07
   0     10    11.338     9.948    0.69E-04    0.30E-04    0.38E-07
   1     10    11.338     3.563    0.26E-04    0.18E-04    0.40E-07
   1     10    11.338     4.524    0.25E-03    0.39E-04    0.44E-06
   2      9    11.338    87.261    0.26E-03    0.91E-05    0.26E-06
   2      9    11.338    70.950    0.25E-03    0.91E-05    0.25E-06
 Optimization of the real space projectors (new method)

 maximal supplied QI-value         = 24.76
 optimisation between [QCUT,QGAM] = [ 11.39, 22.77] = [ 36.31,145.25] Ry 
 Optimized for a Real-space Cutoff    1.00 Angstroem

   l    n(q)    QCUT    max X(q) W(low)/X(q) W(high)/X(q)  e(spline) 
   0      7    11.387    20.381    0.39E-03    0.13E-02    0.15E-06
   0      7    11.387    15.268    0.42E-03    0.14E-02    0.17E-06
   1      6    11.387     5.964    0.41E-03    0.11E-02    0.17E-06
   1      6    11.387     5.382    0.39E-03    0.87E-03    0.15E-06
 Optimization of the real space projectors (new method)

 maximal supplied QI-value         = 34.20
 optimisation between [QCUT,QGAM] = [ 11.29, 22.57] = [ 35.68,142.71] Ry 
 Optimized for a Real-space Cutoff    1.16 Angstroem

   l    n(q)    QCUT    max X(q) W(low)/X(q) W(high)/X(q)  e(spline) 
   0      8    11.287    19.460    0.40E-03    0.73E-03    0.16E-06
   0      8    11.287    12.209    0.38E-03    0.70E-03    0.15E-06
   1      7    11.287     4.655    0.22E-03    0.25E-04    0.22E-06
 Optimization of the real space projectors (new method)

 maximal supplied QI-value         = 25.13
 optimisation between [QCUT,QGAM] = [ 11.31, 22.87] = [ 35.82,146.48] Ry 
 Optimized for a Real-space Cutoff    1.00 Angstroem

   l    n(q)    QCUT    max X(q) W(low)/X(q) W(high)/X(q)  e(spline) 
   0      7    11.310   115.676    0.43E-03    0.13E-02    0.19E-06
   0      7    11.310    87.132    0.43E-03    0.13E-02    0.18E-06
   1      6    11.310     4.429    0.42E-03    0.74E-03    0.11E-06
   1      6    11.310     2.733    0.34E-03    0.55E-03    0.92E-07
  PAW_PBE Zr_sv 04Jan2005               :
 energy of atom  1       EATOM=-1284.2219
 kinetic energy error for atom=    0.0049 (will be added to EATOM!!)
  PAW_PBE O 08Apr2002                   :
 energy of atom  2       EATOM= -432.3788
 kinetic energy error for atom=    0.0224 (will be added to EATOM!!)
  PAW_PBE H 15Jun2001                   :
 energy of atom  3       EATOM=  -12.4884
 kinetic energy error for atom=    0.0020 (will be added to EATOM!!)
  PAW_PBE C 08Apr2002                   :
 energy of atom  4       EATOM= -147.1560
 kinetic energy error for atom=    0.0076 (will be added to EATOM!!)
 
 
 POSCAR: Zr   O    H    C                        
  positions in direct lattice
  velocities in cartesian coordinates
  No initial velocities read in
 exchange correlation table for  LEXCH =        8
   RHO(1)=    0.500       N(1)  =     2000
   RHO(2)=  100.500       N(2)  =     4000

 VTST: version 3.1, (03/28/14)

 CHAIN: initializing optimizer
 
 OPT: Using Conjugate-Gradient optimizer
 OPT: CG, Init
 OPT: CG, FDSTEP      0.005000
 OPT: CG, MAXMOVE      0.200000
 
 CHAIN: Read ICHAIN            2
 
 POSCAR: Zr   O    H    C                        
  positions in direct lattice
  velocities in cartesian coordinates
  No initial velocities read in
 CHAIN: Running the Dimer method

 Dimer: -----------------
 Dimer: Input Parameters
 Dimer:   Seed      0
 Dimer: RotMax      4
 Dimer:     dR      0.005000
 Dimer:  FNMax      1.000000
 Dimer:  FNMin      0.010000
 Dimer: -----------------
 


--------------------------------------------------------------------------------------------------------


 ion  position               nearest neighbor table
   1  0.088  0.321  0.038-  78 2.10  62 2.10  50 2.18  74 2.19  61 2.26  54 2.30  16 3.37   6 3.50
                            12 3.52  13 3.65
   2  0.338  0.821  0.038-  79 2.10  63 2.10  51 2.18  75 2.19  58 2.26  55 2.30  13 3.37   7 3.50
                             9 3.52  14 3.65
   3  0.588  0.321  0.038-  80 2.10  64 2.10  52 2.18  76 2.19  59 2.26  56 2.30  14 3.37   8 3.50
                            10 3.52  15 3.65
   4  0.838  0.821  0.038-  81 2.10  65 2.10  53 2.18  77 2.19  60 2.26  57 2.30  15 3.37   5 3.50
                            11 3.52  16 3.65
   5  0.070  0.834  0.049-  82 2.07  66 2.10  65 2.18  58 2.19  57 2.22  70 2.30  12 3.37  17 3.46
                             4 3.50  16 3.52   9 3.65
   6  0.320  0.334  0.049-  83 2.06  67 2.10  62 2.18  59 2.19  54 2.22  71 2.30   9 3.37  18 3.48
                             1 3.50  13 3.52  10 3.65
   7  0.570  0.834  0.049-  84 2.07  68 2.10  63 2.18  60 2.19  55 2.22  72 2.30  10 3.37  19 3.49
                             2 3.50  14 3.52  11 3.65
   8  0.820  0.334  0.049-  85 2.08  69 2.10  64 2.18  61 2.19  56 2.22  73 2.30  11 3.37  20 3.50
                             3 3.50  15 3.52  12 3.65
   9  0.238  0.068  0.057-  62 2.10  86 2.16  67 2.18  70 2.19  75 2.22  58 2.30   6 3.37  17 3.48
                            14 3.50  22 3.52   2 3.52   5 3.65
  10  0.488  0.568  0.057-  63 2.10  68 2.18  87 2.18  71 2.19  76 2.22  59 2.30   7 3.37  18 3.48
                            15 3.50   3 3.52  23 3.54   6 3.65
  11  0.738  0.068  0.057-  64 2.10  69 2.18  88 2.18  72 2.19  77 2.22  60 2.30   8 3.37  19 3.48
                            16 3.50   4 3.52  24 3.52   7 3.65
  12  0.988  0.568  0.057-  65 2.10  66 2.18  89 2.18  73 2.19  74 2.22  61 2.30   5 3.37  13 3.50
                            20 3.51   1 3.52  21 3.53   8 3.65
  13  0.220  0.581  0.068-  51 2.10  66 2.10  79 2.18  54 2.19  71 2.26  90 2.26  74 2.30   2 3.37
                            21 3.49  26 3.50  12 3.50  18 3.51   6 3.52   1 3.65
  14  0.470  0.081  0.068-  52 2.10  67 2.10  80 2.18  55 2.19  72 2.26  91 2.27  75 2.30   3 3.37
                            27 3.48  22 3.49   9 3.50  19 3.52   7 3.52   2 3.65
  15  0.720  0.581  0.068-  53 2.10  68 2.10  81 2.18  56 2.19  73 2.26  92 2.26  76 2.30   4 3.37
                            28 3.50  10 3.50  23 3.51   8 3.52  20 3.53   3 3.65
  16  0.970  0.081  0.068-  50 2.10  69 2.10  78 2.18  57 2.19  70 2.26  93 2.27  77 2.30   1 3.37
                            11 3.50  17 3.50  24 3.50  25 3.50   5 3.52   4 3.65
  17  0.106  0.983  0.171-  94 2.09 110 2.13  82 2.16  70 2.19 106 2.19  93 2.24  86 2.30  32 3.39
                             5 3.46   9 3.48  16 3.50  22 3.52  25 3.54  29 3.67
  18  0.357  0.484  0.171-  95 2.09 111 2.14  83 2.16  71 2.19 107 2.19  90 2.23  87 2.29  29 3.37
                             6 3.48  10 3.48  13 3.51  23 3.52  26 3.54  30 3.65
  19  0.608  0.984  0.172-  96 2.09 112 2.15  84 2.18 108 2.20  72 2.20  91 2.22  88 2.28  30 3.39
                            11 3.48  24 3.49   7 3.49  27 3.51  14 3.52  31 3.69
  20  0.856  0.483  0.173- 113 2.10  97 2.10  85 2.18 109 2.21  73 2.23  92 2.23  89 2.32  31 3.34
                             8 3.50  28 3.50  12 3.51  15 3.53  21 3.53  32 3.65
  21  0.090  0.495  0.182- 114 2.09  98 2.11  97 2.17  90 2.18  74 2.24  89 2.28 102 2.30  25 3.37
                            13 3.49  32 3.51  12 3.53  20 3.53  26 3.63  33 3.64
  22  0.339  0.994  0.182- 115 2.10  99 2.11  94 2.17  91 2.19  75 2.23 103 2.25  86 2.28  26 3.38
                            14 3.49  29 3.51   9 3.52  17 3.52  34 3.60  27 3.63
  23  0.589  0.492  0.183- 100 2.08 116 2.13  95 2.16  92 2.18  76 2.25  87 2.29 104 2.30  27 3.36
                            15 3.51  35 3.51  18 3.52  10 3.54  30 3.55  28 3.68
  24  0.839  0.995  0.183- 117 2.10 101 2.10  93 2.18  96 2.18  77 2.25  88 2.26 105 2.29  28 3.37
                            19 3.49  16 3.50  11 3.52  31 3.54  36 3.62  25 3.65
  25  0.005  0.230  0.191-  78 2.10  97 2.10 121 2.15  98 2.19 105 2.23  93 2.30 106 2.30  21 3.37
                            37 3.45  16 3.50  17 3.54  29 3.55  24 3.65  36 3.66
  26  0.254  0.730  0.191-  79 2.10  94 2.10 102 2.18  99 2.19 118 2.20  90 2.29 107 2.30  22 3.38
                            38 3.47  13 3.50  18 3.54  30 3.55  21 3.63  33 3.63
  27  0.505  0.228  0.191-  80 2.09  95 2.12 119 2.16 100 2.19 103 2.20  91 2.29 108 2.29  23 3.36
                            14 3.48  39 3.50  19 3.51  31 3.57  22 3.63  34 3.66
  28  0.757  0.730  0.191-  81 2.09  96 2.11 101 2.16 120 2.23 104 2.23 109 2.24  92 2.30  24 3.37
                            15 3.50  32 3.50  20 3.50  35 3.52  40 3.55  23 3.68
  29  0.240  0.242  0.201-  98 2.10  83 2.10 122 2.19 103 2.21 111 2.22  86 2.23 106 2.29  18 3.37
                            37 3.41  42 3.51  22 3.51  25 3.55  34 3.63  17 3.67
  30  0.489  0.742  0.200-  99 2.09  84 2.09 112 2.19 123 2.21  87 2.22 104 2.25 107 2.29  19 3.39
                            38 3.44  43 3.48  35 3.54  26 3.55  23 3.55  18 3.65
  31  0.741  0.245  0.204- 100 2.11  85 2.12 113 2.12 105 2.21 124 2.27  88 2.29 108 2.30  20 3.34
                            39 3.49  24 3.54  44 3.56  27 3.57  36 3.63  19 3.69
  32  0.989  0.741  0.202- 101 2.12  82 2.13 110 2.19 102 2.21 125 2.21  89 2.22 109 2.27  17 3.39
                            41 3.47  40 3.49  28 3.50  21 3.51  33 3.64  20 3.65
  33  0.125  0.642  0.314- 142 2.02 126 2.16 138 2.17 114 2.20 125 2.26 118 2.36 102 2.41  45 3.22
                            41 3.48  38 3.53  26 3.63  32 3.64  21 3.64  46 3.69
  34  0.371  0.139  0.313- 143 2.03 127 2.13 139 2.18 115 2.20 122 2.24 119 2.37 103 2.42  46 3.22
                            42 3.50  39 3.51  22 3.60  29 3.63  47 3.63  27 3.66
  35  0.625  0.644  0.306- 140 2.15 128 2.16 116 2.19 123 2.21 104 2.22 144 2.24 120 2.26  49 3.33
                            47 3.45  43 3.45  23 3.51  28 3.52  30 3.54  40 3.55  48 3.71
  36  0.874  0.139  0.314- 145 2.02 129 2.11 141 2.13 117 2.23 124 2.34 105 2.37 121 2.48  48 3.22
                            44 3.40  37 3.55  24 3.62  31 3.63  25 3.66  45 3.79
  37  0.110  0.160  0.312- 130 2.09 121 2.13 122 2.15 106 2.16 129 2.17 134 2.18  29 3.41  25 3.45
                            41 3.45  45 3.49  36 3.55  42 3.59
  38  0.359  0.659  0.313- 131 2.10 126 2.14 107 2.16 135 2.16 123 2.16 118 2.17  42 3.44  30 3.44
                            26 3.47  33 3.53  46 3.54  43 3.57
  39  0.604  0.157  0.316- 136 2.05 132 2.12 127 2.15 124 2.20 108 2.20 119 2.22  47 3.42  43 3.43
                            31 3.49  27 3.50  34 3.51  44 3.82
  40  0.860  0.663  0.319- 133 2.12 125 2.17 120 2.19 137 2.19 128 2.24 146 2.26 109 2.27  44 3.45
                            32 3.49  48 3.50  28 3.55  35 3.55  41 3.57  49 3.71
  41  0.027  0.889  0.324- 110 2.05 138 2.15 129 2.16 130 2.19 137 2.19 125 2.28  37 3.45  32 3.47
                            33 3.48  46 3.51  40 3.57
  42  0.276  0.388  0.326- 111 2.06 139 2.12 126 2.14 134 2.25 131 2.25 122 2.30  38 3.44  47 3.48
                            34 3.50  29 3.51  37 3.59
  43  0.525  0.885  0.325- 112 2.06 127 2.14 140 2.16 132 2.17 135 2.26 123 2.29  39 3.43  35 3.45
                            30 3.48  48 3.53  38 3.57
  44  0.791  0.387  0.331- 147 2.02 141 2.10 133 2.11 113 2.19 124 2.25 128 2.25  49 3.30  45 3.39
                            36 3.40  40 3.45  31 3.56  39 3.82
  45  0.016  0.407  0.336- 142 2.02 114 2.06 133 2.17 141 2.22 134 2.25 121 2.31  33 3.22  44 3.39
                            37 3.49  36 3.79
  46  0.259  0.906  0.336- 143 2.02 115 2.07 130 2.16 138 2.27 118 2.29 135 2.31  34 3.22  41 3.51
                            38 3.54  33 3.69
  47  0.506  0.396  0.336- 136 2.07 116 2.10 131 2.18 139 2.22 119 2.22 144 2.24  39 3.42  35 3.45
                            42 3.48  34 3.63
  48  0.759  0.908  0.337- 145 2.01 117 2.05 132 2.16 137 2.26 120 2.32 140 2.35  36 3.22  40 3.50
                            43 3.53  35 3.71
  49  0.700  0.542  0.424- 147 1.96 150 2.00 148 2.02 144 2.09 146 2.17 128 2.36 168 2.63  44 3.30
                            35 3.33  40 3.71
  50  0.024  0.173  0.000-  16 2.10   1 2.18
  51  0.274  0.673  0.000-  13 2.10   2 2.18
  52  0.524  0.173  0.000-  14 2.10   3 2.18
  53  0.774  0.673  0.000-  15 2.10   4 2.18
  54  0.215  0.432  0.016-  13 2.19   6 2.22   1 2.30
  55  0.465  0.932  0.016-  14 2.19   7 2.22   2 2.30
  56  0.715  0.432  0.016-  15 2.19   8 2.22   3 2.30
  57  0.965  0.932  0.016-  16 2.19   5 2.22   4 2.30
  58  0.207  0.891  0.025-   5 2.19   2 2.26   9 2.30
  59  0.457  0.391  0.025-   6 2.19   3 2.26  10 2.30
  60  0.707  0.891  0.025-   7 2.19   4 2.26  11 2.30
  61  0.957  0.391  0.025-   8 2.19   1 2.26  12 2.30
  62  0.197  0.226  0.044-   9 2.10   1 2.10   6 2.18
  63  0.447  0.726  0.044-  10 2.10   2 2.10   7 2.18
  64  0.697  0.226  0.044-  11 2.10   3 2.10   8 2.18
  65  0.947  0.726  0.044-  12 2.10   4 2.10   5 2.18
  66  0.111  0.675  0.062-   5 2.10  13 2.10  12 2.18
  67  0.361  0.175  0.062-   6 2.10  14 2.10   9 2.18
  68  0.611  0.675  0.062-   7 2.10  15 2.10  10 2.18
  69  0.861  0.175  0.062-   8 2.10  16 2.10  11 2.18
  70  0.101  0.010  0.081-  17 2.19   9 2.19  16 2.26   5 2.30
  71  0.351  0.510  0.081-  18 2.19  10 2.19  13 2.26   6 2.30
  72  0.601  0.010  0.081-  11 2.19  19 2.20  14 2.26   7 2.30
  73  0.851  0.510  0.081-  12 2.19  20 2.23  15 2.26   8 2.30
  74  0.093  0.470  0.090-   1 2.19  12 2.22  21 2.24  13 2.30
  75  0.343  0.970  0.090-   2 2.19   9 2.22  22 2.23  14 2.30
  76  0.593  0.470  0.090-   3 2.19  10 2.22  23 2.25  15 2.30
  77  0.843  0.970  0.090-   4 2.19  11 2.22  24 2.25  16 2.30
  78  0.034  0.229  0.106-   1 2.10  25 2.10  16 2.18
  79  0.284  0.729  0.106-   2 2.10  26 2.10  13 2.18
  80  0.534  0.229  0.106-  27 2.09   3 2.10  14 2.18
  81  0.784  0.729  0.106-  28 2.09   4 2.10  15 2.18
  82  0.045  0.833  0.134-   5 2.07  32 2.13  17 2.16
  83  0.297  0.334  0.134-   6 2.06  29 2.10  18 2.16
  84  0.547  0.834  0.134-   7 2.07  30 2.09  19 2.18
  85  0.796  0.332  0.134-   8 2.08  31 2.12  20 2.18
  86  0.232  0.093  0.146-   9 2.16  29 2.23  22 2.28  17 2.30
  87  0.482  0.593  0.147-  10 2.18  30 2.22  18 2.29  23 2.29
  88  0.732  0.094  0.147-  11 2.18  24 2.26  19 2.28  31 2.29
  89  0.982  0.594  0.147-  12 2.18  32 2.22  21 2.28  20 2.32
  90  0.226  0.552  0.161-  21 2.18  18 2.23  13 2.26  26 2.29
  91  0.476  0.051  0.161-  22 2.19  19 2.22  14 2.27  27 2.29
  92  0.725  0.552  0.161-  23 2.18  20 2.23  15 2.26  28 2.30
  93  0.975  0.053  0.161-  24 2.18  17 2.24  16 2.27  25 2.30
  94  0.215  0.890  0.181-  17 2.09  26 2.10  22 2.17
  95  0.465  0.390  0.181-  18 2.09  27 2.12  23 2.16
  96  0.715  0.889  0.181-  19 2.09  28 2.11  24 2.18
  97  0.966  0.391  0.182-  20 2.10  25 2.10  21 2.17
  98  0.131  0.335  0.192-  29 2.10  21 2.11  25 2.19
  99  0.379  0.835  0.194-  30 2.09  22 2.11  26 2.19
 100  0.629  0.334  0.193-  23 2.08  31 2.11  27 2.19
 101  0.879  0.836  0.194-  24 2.10  32 2.12  28 2.16
 102  0.118  0.672  0.215-  26 2.18  32 2.21  21 2.30  33 2.41
 103  0.367  0.169  0.213-  27 2.20  29 2.21  22 2.25  34 2.42
 104  0.619  0.669  0.215-  35 2.22  28 2.23  30 2.25  23 2.30
 105  0.868  0.170  0.217-  31 2.21  25 2.23  24 2.29  36 2.37
 106  0.116  0.130  0.224-  37 2.16  17 2.19  29 2.29  25 2.30
 107  0.365  0.630  0.225-  38 2.16  18 2.19  30 2.29  26 2.30
 108  0.615  0.131  0.226-  39 2.20  19 2.20  27 2.29  31 2.30
 109  0.864  0.632  0.225-  20 2.21  28 2.24  32 2.27  40 2.27
 110  0.047  0.894  0.240-  41 2.05  17 2.13  32 2.19
 111  0.298  0.395  0.241-  42 2.06  18 2.14  29 2.22
 112  0.548  0.893  0.241-  43 2.06  19 2.15  30 2.19
 113  0.798  0.394  0.240-  20 2.10  31 2.12  44 2.19
 114  0.073  0.492  0.269-  45 2.06  21 2.09  33 2.20
 115  0.314  0.992  0.268-  46 2.07  22 2.10  34 2.20
 116  0.565  0.490  0.270-  47 2.10  23 2.13  35 2.19
 117  0.810  0.994  0.269-  48 2.05  24 2.10  36 2.23
 118  0.252  0.750  0.283-  38 2.17  26 2.20  46 2.29  33 2.36
 119  0.498  0.250  0.280-  27 2.16  39 2.22  47 2.22  34 2.37
 120  0.751  0.748  0.284-  40 2.19  28 2.23  35 2.26  48 2.32
 121  0.008  0.252  0.281-  37 2.13  25 2.15  45 2.31  36 2.48
 122  0.246  0.213  0.291-  37 2.15  29 2.19  34 2.24  42 2.30
 123  0.495  0.711  0.291-  38 2.16  35 2.21  30 2.21  43 2.29
 124  0.742  0.220  0.298-  39 2.20  44 2.25  31 2.27  36 2.34
 125  0.995  0.713  0.293-  40 2.17  32 2.21  33 2.26  41 2.28
 126  0.240  0.554  0.329-  42 2.14  38 2.14  33 2.16
 127  0.485  0.050  0.326-  34 2.13  43 2.14  39 2.15
 128  0.735  0.551  0.328-  35 2.16  40 2.24  44 2.25  49 2.36
 129  0.989  0.056  0.328-  36 2.11  41 2.16  37 2.17
 130  0.147  0.003  0.331-  37 2.09  46 2.16  41 2.19
 131  0.399  0.504  0.337-  38 2.10  47 2.18  42 2.25
 132  0.643  0.999  0.336-  39 2.12  48 2.16  43 2.17
 133  0.903  0.503  0.327-  44 2.11  40 2.12  45 2.17
 134  0.139  0.320  0.352-  37 2.18  42 2.25  45 2.25
 135  0.386  0.818  0.352-  38 2.16  43 2.26  46 2.31
 136  0.599  0.295  0.365-  39 2.05  47 2.07
 137  0.890  0.833  0.347-  40 2.19  41 2.19  48 2.26
 138  0.132  0.800  0.356-  41 2.15  33 2.17  46 2.27
 139  0.379  0.297  0.355-  42 2.12  34 2.18  47 2.22
 140  0.629  0.792  0.356-  35 2.15  43 2.16  48 2.35
 141  0.897  0.294  0.355-  44 2.10  36 2.13  45 2.22
 142  0.069  0.545  0.375-  33 2.02  45 2.02
 143  0.316  0.042  0.374-  46 2.02  34 2.03
 144  0.581  0.538  0.380-  49 2.09  47 2.24  35 2.24
 145  0.816  0.042  0.375-  48 2.01  36 2.02
 146  0.812  0.661  0.408- 149 0.97  49 2.17  40 2.26
 147  0.760  0.408  0.412-  49 1.96  44 2.02
 148  0.694  0.471  0.500-  49 2.02
 149  0.838  0.719  0.433- 146 0.97
 150  0.690  0.551  0.507- 168 1.47  49 2.00
 151  0.384  0.594  0.530- 166 1.10
 152  0.528  0.521  0.554- 165 1.10
 153  0.401  0.371  0.471- 164 1.10
 154  0.544  0.487  0.484- 165 1.10
 155  0.301  0.418  0.497- 164 1.10
 156  0.387  0.385  0.544- 164 1.10
 157  0.537  0.723  0.530- 167 1.11
 158  0.405  0.575  0.458- 166 1.10
 159  0.550  0.690  0.459- 167 1.11
 160  0.677  0.648  0.555- 168 1.11
 161  0.786  0.782  0.507- 169 1.10
 162  0.688  0.842  0.527- 169 1.11
 163  0.703  0.808  0.456- 169 1.10
 164  0.374  0.423  0.503- 155 1.10 156 1.10 153 1.10 166 1.53
 165  0.516  0.549  0.511- 154 1.10 152 1.10 166 1.53 167 1.53
 166  0.416  0.541  0.500- 151 1.10 158 1.10 165 1.53 164 1.53
 167  0.565  0.663  0.502- 159 1.11 157 1.11 165 1.53 168 1.54
 168  0.666  0.666  0.510- 160 1.11 150 1.47 169 1.53 167 1.54  49 2.63
 169  0.714  0.779  0.499- 163 1.10 161 1.10 162 1.11 168 1.53
 
  Warning from LATTYP: Monoclinic adjustement (A1->A3, A2->A1, A3->A2)!
  Warning from LATTYP: Got some problem with cell dimensions!
  Tried to take original basis but could not verify dimensions!
  LATTYP: Found a simple monoclinic cell.
 ALAT       =    18.5584556648
 B/A-ratio  =     1.2917238965
 C/A-ratio  =     1.7011970181
 COS(beta)  =    -0.9496615564
  
  Lattice vectors:
  
 A1 = ( -14.0305058395, -12.1474763861,   0.0000000000)
 A2 = (   0.0000000000,   0.0000000000, -23.9724006653)
 A3 = (  29.1411063110,  12.1474763861,   0.0000000000)


Analysis of symmetry for initial positions (statically):
=====================================================================
 Subroutine PRICEL returns:
 Original cell was already a primitive cell.
 

 Routine SETGRP: Setting up the symmetry group for a 
 simple monoclinic supercell.


 Subroutine GETGRP returns: Found  1 space group operations
 (whereof  1 operations were pure point group operations)
 out of a pool of  4 trial point group operations.


The static configuration has the point symmetry C_1 .


Analysis of symmetry for dynamics (positions and initial velocities):
=====================================================================
 Subroutine PRICEL returns:
 Original cell was already a primitive cell.
 

 Routine SETGRP: Setting up the symmetry group for a 
 simple monoclinic supercell.


 Subroutine GETGRP returns: Found  1 space group operations
 (whereof  1 operations were pure point group operations)
 out of a pool of  4 trial point group operations.


The dynamic configuration has the point symmetry C_1 .


Analysis of constrained symmetry for selective dynamics:
=====================================================================
 Subroutine PRICEL returns:
 Original cell was already a primitive cell.
 

 Routine SETGRP: Setting up the symmetry group for a 
 simple monoclinic supercell.


 Subroutine GETGRP returns: Found  1 space group operations
 (whereof  1 operations were pure point group operations)
 out of a pool of  4 trial point group operations.


The constrained configuration has the point symmetry C_1 .


Analysis of structural, dynamic, and magnetic symmetry:
=====================================================================
 Subroutine PRICEL returns:
 Original cell was already a primitive cell.
 

 Routine SETGRP: Setting up the symmetry group for a 
 simple monoclinic supercell.


 Subroutine GETGRP returns: Found  1 space group operations
 (whereof  1 operations were pure point group operations)
 out of a pool of  4 trial point group operations.


The magnetic configuration has the point symmetry C_1 .


 Subroutine INISYM returns: Found  1 space group operations
 (whereof  1 operations are pure point group operations),
 and found     1 'primitive' translations

 
 
 KPOINTS: Monkhorst Pack                          

Automatic generation of k-mesh.
Space group operators:
 irot       det(A)        alpha          n_x          n_y          n_z        tau_x        tau_y        tau_z
    1     1.000000     0.000001     1.000000     0.000000     0.000000     0.000000     0.000000     0.000000
 
 Subroutine IBZKPT returns following result:
 ===========================================
 
 Found      2 irreducible k-points:
 
 Following reciprocal coordinates:
            Coordinates               Weight
  0.250000  0.250000  0.000000      2.000000
 -0.250000  0.250000  0.000000      2.000000
 
 Following cartesian coordinates:
            Coordinates               Weight
  0.016545  0.022051  0.000000      2.000000
 -0.016545  0.019109  0.000000      2.000000
 


--------------------------------------------------------------------------------------------------------




 Dimension of arrays:
   k-points           NKPTS =      2   k-points in BZ     NKDIM =      2   number of bands    NBANDS=    640
   number of dos      NEDOS =    301   number of ions     NIONS =    169
   non local maximal  LDIM  =      6   non local SUM 2l+1 LMDIM =     18
   total plane-waves  NPLWV = 823200
   max r-space proj   IRMAX =   2561   max aug-charges    IRDMAX=   7978
   dimension x,y,z NGX =    84 NGY =   70 NGZ =  140
   dimension x,y,z NGXF=   168 NGYF=  140 NGZF=  280
   support grid    NGXF=   168 NGYF=  140 NGZF=  280
   ions per type =              49  98  16   6
   NGX,Y,Z   is equivalent  to a cutoff of   9.24,  9.54,  9.71 a.u.
   NGXF,Y,Z  is equivalent  to a cutoff of  18.48, 19.08, 19.42 a.u.

 SYSTEM =  mZrO2_n111_dimer                        
 POSCAR =  Zr   O    H    C                        

 Startparameter for this run:
   NWRITE =      2    write-flag & timer
   PREC   = normal    normal or accurate (medium, high low for compatibility)
   ISTART =      1    job   : 0-new  1-cont  2-samecut
   ICHARG =      1    charge: 1-file 2-atom 10-const
   ISPIN  =      2    spin polarized calculation?
   LNONCOLLINEAR =      F non collinear calculations
   LSORBIT =      F    spin-orbit coupling
   INIWAV =      1    electr: 0-lowe 1-rand  2-diag
   LASPH  =      F    aspherical Exc in radial PAW
   METAGGA=      F    non-selfconsistent MetaGGA calc.

 Electronic Relaxation 1
   ENCUT  =  500.0 eV  36.75 Ry    6.06 a.u.  27.55 22.24 43.71*2*pi/ulx,y,z
   ENINI  =  500.0     initial cutoff
   ENAUG  =  644.9 eV  augmentation charge cutoff
   NELM   =    300;   NELMIN=  2; NELMDL=  0     # of ELM steps 
   EDIFF  = 0.1E-05   stopping-criterion for ELM
   LREAL  =      T    real-space projection
   NLSPLINE    = F    spline interpolate recip. space projectors
   LCOMPAT=      F    compatible to vasp.4.4
   GGA_COMPAT  = T    GGA compatible to vasp.4.4-vasp.4.6
   LMAXPAW     = -100 max onsite density
   LMAXMIX     =    2 max onsite mixed and CHGCAR
   VOSKOWN=      0    Vosko Wilk Nusair interpolation
   ROPT   =   -0.00050  -0.00050  -0.00050  -0.00050
 Ionic relaxation
   EDIFFG = -.5E-01   stopping-criterion for IOM
   NSW    =      0    number of steps for IOM
   NBLOCK =      1;   KBLOCK =      1    inner block; outer block 
   IBRION =     -1    ionic relax: 0-MD 1-quasi-New 2-CG
   NFREE  =      0    steps in history (QN), initial steepest desc. (CG)
   ISIF   =      2    stress and relaxation
   IWAVPR =     10    prediction:  0-non 1-charg 2-wave 3-comb
   ISYM   =      2    0-nonsym 1-usesym 2-fastsym
   LCORR  =      T    Harris-Foulkes like correction to forces

   POTIM  = 0.0000    time-step for ionic-motion
   TEIN   =    0.0    initial temperature
   TEBEG  =    0.0;   TEEND  =   0.0 temperature during run
   SMASS  =  -3.00    Nose mass-parameter (am)
   estimated Nose-frequenzy (Omega)   =  0.10E-29 period in steps =  0.00 mass=  -0.522E-26a.u.
   SCALEE = 1.0000    scale energy and forces
   NPACO  =    256;   APACO  = 16.0  distance and # of slots for P.C.
   PSTRESS=    0.0 pullay stress

  Mass of Ions in am
   POMASS =  91.22 16.00  1.00 12.01
  Ionic Valenz
   ZVAL   =  12.00  6.00  1.00  4.00
  Atomic Wigner-Seitz radii
   RWIGS  =  -1.00 -1.00 -1.00 -1.00
  virtual crystal weights 
   VCA    =   1.00  1.00  1.00  1.00
   NELECT =    1216.0000    total number of electrons
   NUPDOWN=      -1.0000    fix difference up-down

 DOS related values:
   EMIN   =  10.00;   EMAX   =-10.00  energy-range for DOS
   EFERMI =   0.00
   ISMEAR =     0;   SIGMA  =   0.05  broadening in eV -4-tet -1-fermi 0-gaus

 Electronic relaxation 2 (details)
   IALGO  =     38    algorithm
   LDIAG  =      T    sub-space diagonalisation (order eigenvalues)
   LSUBROT=      F    optimize rotation matrix (better conditioning)
   TURBO    =      0    0=normal 1=particle mesh
   IRESTART =      0    0=no restart 2=restart with 2 vectors
   NREBOOT  =      0    no. of reboots
   NMIN     =      0    reboot dimension
   EREF     =   0.00    reference energy to select bands
   IMIX   =      4    mixing-type and parameters
     AMIX     =   0.40;   BMIX     =  1.00
     AMIX_MAG =   1.60;   BMIX_MAG =  1.00
     AMIN     =   0.10
     WC   =   100.;   INIMIX=   1;  MIXPRE=   1;  MAXMIX= -45

 Intra band minimization:
   WEIMIN = 0.0000     energy-eigenvalue tresh-hold
   EBREAK =  0.39E-09  absolut break condition
   DEPER  =   0.30     relativ break condition  

   TIME   =   0.40     timestep for ELM

  volume/ion in A,a.u.               =      26.04       175.71
  Fermi-wavevector in a.u.,A,eV,Ry     =   1.066333  2.015077 15.470728  1.137066
  Thomas-Fermi vector in A             =   2.201914
 
 Write flags
   LWAVE        =      T    write WAVECAR
   LDOWNSAMPLE  =      F    k-point downsampling of WAVECAR
   LCHARG       =      T    write CHGCAR
   LVTOT        =      F    write LOCPOT, total local potential
   LVHAR        =      F    write LOCPOT, Hartree potential only
   LELF         =      F    write electronic localiz. function (ELF)
   LORBIT       =      0    0 simple, 1 ext, 2 COOP (PROOUT), +10 PAW based schemes


 Dipole corrections
   LMONO  =      F    monopole corrections only (constant potential shift)
   LDIPOL =      F    correct potential (dipole corrections)
   IDIPOL =      3    1-x, 2-y, 3-z, 4-all directions 
   EPSILON=  1.0000000 bulk dielectric constant

 LDA+U is selected, type is set to LDAUTYPE =  2
   angular momentum for each species LDAUL =     2   -1   -1   -1
   U (eV)           for each species LDAUU =   4.0  0.0  0.0  0.0
   J (eV)           for each species LDAUJ =   0.0  0.0  0.0  0.0
 Exchange correlation treatment:
   GGA     =    --    GGA type
   LEXCH   =     8    internal setting for exchange type
   VOSKOWN=      0    Vosko Wilk Nusair interpolation
   LHFCALC =     F    Hartree Fock is set to
   LHFONE  =     F    Hartree Fock one center treatment
   AEXX    =    0.0000 exact exchange contribution

 Linear response parameters
   LEPSILON=     F    determine dielectric tensor
   LRPA    =     F    only Hartree local field effects (RPA)
   LNABLA  =     F    use nabla operator in PAW spheres
   LVEL    =     F    velocity operator in full k-point grid
   LINTERFAST=   F  fast interpolation
   KINTER  =     0    interpolate to denser k-point grid
   CSHIFT  =0.1000    complex shift for real part using Kramers Kronig
   OMEGAMAX=  -1.0    maximum frequency
   DEG_THRESHOLD= 0.2000000E-02 threshold for treating states as degnerate
   RTIME   =   -0.100 relaxation time in fs
  (WPLASMAI=    0.000 imaginary part of plasma frequency in eV, 0.658/RTIME)
   DFIELD  = 0.0000000 0.0000000 0.0000000 field for delta impulse in time
 
 Orbital magnetization related:
   ORBITALMAG=     F  switch on orbital magnetization
   LCHIMAG   =     F  perturbation theory with respect to B field
   DQ        =  0.001000  dq finite difference perturbation B field
   LLRAUG    =     F  two centre corrections for induced B field



--------------------------------------------------------------------------------------------------------


 Static calculation
 charge density and potential will be updated during run
 spin polarized calculation
 Variant of blocked Davidson
 Davidson routine will perform the subspace rotation
 perform sub-space diagonalisation
    after iterative eigenvector-optimisation
 modified Broyden-mixing scheme, WC =      100.0
 initial mixing is a Kerker type mixing with AMIX =  0.4000 and BMIX =      1.0000
 Hartree-type preconditioning will be used
 using additional bands           32
 real space projection scheme for non local part
 use partial core corrections
 calculate Harris-corrections to forces 
   (improved forces if not selfconsistent)
 use gradient corrections 
 use of overlap-Matrix (Vanderbilt PP)
 Gauss-broadening in eV      SIGMA  =   0.05


--------------------------------------------------------------------------------------------------------


  energy-cutoff  :      500.00
  volume of cell :     4400.27
      direct lattice vectors                 reciprocal lattice vectors
    15.110600471  0.000000000  0.000000000     0.066178707  0.005884289  0.000000000
    -1.080094632 12.147476386  0.000000000     0.000000000  0.082321625  0.000000000
     0.000000000  0.000000000 23.972400665     0.000000000  0.000000000  0.041714637

  length of vectors
    15.110600471 12.195400238 23.972400665     0.066439793  0.082321625  0.041714637


 
 old parameters found on file WAVECAR:
  energy-cutoff  :      500.00
  volume of cell :     4400.27
      direct lattice vectors                 reciprocal lattice vectors
    15.110600471  0.000000000  0.000000000     0.066178707  0.005884289  0.000000000
    -1.080094632 12.147476386  0.000000000     0.000000000  0.082321625  0.000000000
     0.000000000  0.000000000 23.972400665     0.000000000  0.000000000  0.041714637

  length of vectors

 
 k-points in units of 2pi/SCALE and weight: Monkhorst Pack                          
   0.01654468  0.02205148  0.00000000       0.500
  -0.01654468  0.01910933  0.00000000       0.500
 
 k-points in reciprocal lattice and weights: Monkhorst Pack                          
   0.25000000  0.25000000  0.00000000       0.500
  -0.25000000  0.25000000  0.00000000       0.500
 
 position of ions in fractional coordinates (direct lattice) 
   0.08848000  0.32082999  0.03824000
   0.33847998  0.82083000  0.03824000
   0.58847999  0.32082999  0.03824000
   0.83848001  0.82083000  0.03824000
   0.07020001  0.83354995  0.04873000
   0.32019998  0.33355000  0.04873000
   0.57020004  0.83354995  0.04873000
   0.82020001  0.33355000  0.04873000
   0.23783000  0.06778000  0.05703000
   0.48783004  0.56778001  0.05703000
   0.73783001  0.06778000  0.05703000
   0.98782997  0.56778001  0.05703000
   0.21954999  0.58051001  0.06752000
   0.46955000  0.08051000  0.06752000
   0.71954999  0.58051001  0.06752000
   0.96955000  0.08051000  0.06752000
   0.10612326  0.98275189  0.17086629
   0.35690013  0.48354307  0.17117060
   0.60768496  0.98443624  0.17161951
   0.85596658  0.48287725  0.17253827
   0.08990240  0.49471695  0.18241010
   0.33914536  0.99448641  0.18216197
   0.58939225  0.49222275  0.18285898
   0.83860499  0.99539236  0.18271535
   0.00494030  0.23045068  0.19138184
   0.25393449  0.72971092  0.19141721
   0.50454694  0.22820942  0.19099987
   0.75737045  0.72963107  0.19117339
   0.24010692  0.24167887  0.20055147
   0.48887031  0.74247015  0.20036137
   0.74058433  0.24488493  0.20410738
   0.98901834  0.74054273  0.20216145
   0.12458096  0.64214041  0.31377723
   0.37127397  0.13876469  0.31263928
   0.62466875  0.64427625  0.30637694
   0.87420909  0.13871762  0.31409866
   0.11033890  0.16030190  0.31201583
   0.35927216  0.65874612  0.31325471
   0.60405363  0.15734610  0.31600621
   0.85971086  0.66312288  0.31858101
   0.02692805  0.88900718  0.32444826
   0.27590851  0.38838009  0.32556239
   0.52462228  0.88533584  0.32524283
   0.79148926  0.38670640  0.33129335
   0.01629923  0.40691572  0.33592646
   0.25900625  0.90623696  0.33618444
   0.50586915  0.39640053  0.33607640
   0.75876584  0.90775709  0.33651461
   0.70009232  0.54201700  0.42408087
   0.02440000  0.17254999  0.00000000
   0.27439999  0.67255002  0.00000000
   0.52439999  0.17254999  0.00000000
   0.77439999  0.67255002  0.00000000
   0.21455000  0.43156997  0.01581000
   0.46455001  0.93156996  0.01581000
   0.71455008  0.43156997  0.01581000
   0.96455004  0.93156996  0.01581000
   0.20673000  0.89092997  0.02490000
   0.45673000  0.39092998  0.02490000
   0.70672997  0.89092997  0.02490000
   0.95673004  0.39092998  0.02490000
   0.19748000  0.22610000  0.04418000
   0.44748002  0.72610003  0.04418000
   0.69748003  0.22610000  0.04418000
   0.94747999  0.72610003  0.04418000
   0.11054000  0.67523994  0.06158000
   0.36054002  0.17523999  0.06158000
   0.61053998  0.67523994  0.06158000
   0.86053999  0.17523999  0.06158000
   0.10129000  0.01041000  0.08086000
   0.35129000  0.51041000  0.08086000
   0.60128997  0.01041000  0.08086000
   0.85128994  0.51041000  0.08086000
   0.09348000  0.46976000  0.08995000
   0.34348000  0.96975995  0.08995000
   0.59348001  0.46976000  0.08995000
   0.84347996  0.96975995  0.08995000
   0.03362000  0.22878000  0.10576000
   0.28361999  0.72877998  0.10576000
   0.53361997  0.22878000  0.10576000
   0.78362002  0.72877998  0.10576000
   0.04506255  0.83297905  0.13361682
   0.29738119  0.33362237  0.13356908
   0.54650011  0.83353378  0.13366832
   0.79600138  0.33227410  0.13396661
   0.23152144  0.09314848  0.14611202
   0.48193809  0.59347852  0.14683072
   0.73180280  0.09367110  0.14699570
   0.98186817  0.59357334  0.14687089
   0.22608830  0.55240137  0.16056245
   0.47628901  0.05056009  0.16068130
   0.72527978  0.55209982  0.16069622
   0.97490920  0.05259178  0.16091400
   0.21504131  0.88974956  0.18081213
   0.46520142  0.38979896  0.18120224
   0.71500549  0.88881659  0.18116071
   0.96595690  0.39079470  0.18205363
   0.13075282  0.33494772  0.19153109
   0.37940314  0.83463944  0.19356634
   0.62888180  0.33436359  0.19343547
   0.87947767  0.83641691  0.19435983
   0.11807478  0.67168060  0.21461974
   0.36742024  0.16854613  0.21278135
   0.61880694  0.66935022  0.21483208
   0.86750964  0.17047469  0.21688040
   0.11607588  0.12978692  0.22354098
   0.36487065  0.63022759  0.22454203
   0.61547762  0.13074288  0.22564736
   0.86448252  0.63201571  0.22511090
   0.04725937  0.89374236  0.23987901
   0.29811046  0.39537731  0.24080161
   0.54772926  0.89275261  0.24052676
   0.79755636  0.39400425  0.23995920
   0.07276494  0.49236775  0.26873424
   0.31395034  0.99176164  0.26824623
   0.56494337  0.49041381  0.27043423
   0.81014351  0.99365910  0.26863009
   0.25209442  0.75005367  0.28278743
   0.49766919  0.25028512  0.28028412
   0.75070905  0.74825469  0.28354046
   0.00791782  0.25176961  0.28050367
   0.24570231  0.21340770  0.29061120
   0.49533798  0.71051744  0.29101263
   0.74177493  0.22027424  0.29786042
   0.99542557  0.71305363  0.29324020
   0.24026666  0.55417119  0.32895487
   0.48473720  0.04958098  0.32562905
   0.73494153  0.55144882  0.32801234
   0.98923432  0.05558481  0.32768860
   0.14675676  0.00323136  0.33096807
   0.39871470  0.50447764  0.33716314
   0.64266221  0.99909065  0.33550956
   0.90274678  0.50321319  0.32666218
   0.13928413  0.32031624  0.35207091
   0.38645134  0.81840527  0.35165931
   0.59888530  0.29500357  0.36488550
   0.88955129  0.83327458  0.34708266
   0.13241341  0.79987494  0.35619370
   0.37931316  0.29704988  0.35518761
   0.62939278  0.79199211  0.35558696
   0.89668788  0.29431859  0.35467624
   0.06946559  0.54457942  0.37495854
   0.31590990  0.04225012  0.37447765
   0.58122879  0.53826414  0.37955786
   0.81606501  0.04234753  0.37492169
   0.81234127  0.66130084  0.40794457
   0.75991013  0.40820561  0.41217061
   0.69379591  0.47065707  0.50039971
   0.83781282  0.71867330  0.43276931
   0.69032098  0.55132795  0.50718002
   0.38392873  0.59370137  0.52972253
   0.52821720  0.52112965  0.55419534
   0.40099906  0.37063585  0.47075889
   0.54400128  0.48662751  0.48437311
   0.30146853  0.41778862  0.49721936
   0.38673875  0.38512096  0.54366450
   0.53704267  0.72292954  0.52978478
   0.40506179  0.57501328  0.45800844
   0.55023098  0.69047656  0.45883523
   0.67721675  0.64780381  0.55464960
   0.78566492  0.78214465  0.50675535
   0.68836503  0.84165245  0.52676074
   0.70288290  0.80750331  0.45595357
   0.37384739  0.42253776  0.50302637
   0.51600393  0.54856423  0.51118780
   0.41623199  0.54116574  0.49985714
   0.56477240  0.66279068  0.50150869
   0.66589989  0.66555426  0.51003898
   0.71362377  0.77937501  0.49886515
 
 position of ions in cartesian coordinates  (Angst):
   0.99045921  3.89727473  0.91670460
   4.22806168  9.97101307  0.91670460
   8.54575920  3.89727473  0.91670460
  11.78336239  9.97101307  0.91670460
   0.16045142 10.12552833  1.16817511
   4.47814847  4.05179071  1.16817511
   7.71575212 10.12552833  1.16817511
  12.03344917  4.05179071  1.16817511
   3.52054525  0.82335597  1.36714601
   6.75814868  6.89709425  1.36714601
  11.07584571  0.82335597  1.36714601
  14.31344795  6.89709425  1.36714601
   2.69052649  7.05173159  1.61861647
   7.00822400  0.97799331  1.61861647
  10.24582672  7.05173159  1.61861647
  14.56352424  0.97799331  1.61861647
   0.54212117 11.93795543  4.09607527
   4.87070303  5.87382804  4.10337012
   8.11920035 11.95841601  4.11413166
  12.41261584  5.86573998  4.13615646
   0.82413818  6.00956243  4.37280803
   4.05055055 12.08050024  4.36685976
   8.37442365  5.97926421  4.38356866
  11.59670701 12.09150520  4.38012558
  -0.17425771  2.79939414  4.58788209
   3.04894585  8.86414614  4.58873010
   7.37751943  2.77216853  4.57872533
  10.65625165  8.86317614  4.58288514
   3.36712368  2.93578837  4.80770029
   6.58518598  9.01913861  4.80314308
  10.92617507  2.97473395  4.89294396
  14.14480483  8.99572530  4.84629526
   1.18892071  7.80038544  7.52199340
   5.46029368  1.68564079  7.49471397
   8.74324051  7.82633054  7.34459078
  13.05999616  1.68506906  7.52969896
   1.49414577  1.94726360  7.47976844
   4.71730988  8.00210292  7.50946747
   8.95766433  1.91135803  7.57542743
  12.27451191  8.05526951  7.63715166
  -0.55331291 10.79919371  7.77780370
   3.74965598  4.71783802  7.80451211
   6.97111117 10.75459616  7.79685146
  11.54219848  4.69750689  7.94189692
  -0.19321631  4.94299912  8.05296362
   2.93491824 11.00849210  8.05914819
   7.21583651  4.81526602  8.05655802
  10.48494397 11.02695776  8.06706318
   9.99338572  6.58413875 10.16623651
   0.18232835  2.09604693  0.00000000
   3.41993094  8.16978550  0.00000000
   7.73762846  2.09604693  0.00000000
  10.97523117  8.16978550  0.00000000
   2.77584291  5.24248600  0.37900365
   6.01344586 11.31622410  0.37900365
  10.33114434  5.24248600  0.37900365
  13.56874656 11.31622410  0.37900365
   2.16152573 10.82255077  0.59691280
   6.47922326  4.74881268  0.59691280
   9.71682548 10.82255077  0.59691280
  14.03452396  4.74881268  0.59691280
   2.73983193  2.74654436  1.05910064
   5.97743511  8.82028293  1.05910064
  10.29513263  2.74654436  1.05910064
  13.53273487  8.82028293  1.05910064
   0.94100273  8.20246124  1.47622036
   5.25870037  2.12872362  1.47622036
   8.49630260  8.20246124  1.47622036
  12.81400013  2.12872362  1.47622036
   1.51930892  0.12645522  1.93840825
   4.75691175  6.20019341  1.93840825
   9.07460880  0.12645522  1.93840825
  12.31221104  6.20019341  1.93840825
   0.90515363  5.70639848  2.15631746
   4.14275646 11.78013610  2.15631746
   8.46045399  5.70639848  2.15631746
  11.69805622 11.78013610  2.15631746
   0.26091433  2.77909971  2.53532100
   3.49851704  8.85283756  2.53532100
   7.81621408  2.77909971  2.53532100
  11.05381775  8.85283756  2.53532100
  -0.21877396 10.11859329  3.20311596
   4.13326463  4.05266991  3.20197145
   7.35764948 10.12533187  3.20435044
  11.66917134  4.03629175  3.21150120
   3.39781887  1.13151897  3.50265582
   6.64136101  7.20926630  3.51988496
  10.95680605  1.13786747  3.52383991
  14.19550223  7.21041814  3.52084775
   2.81968427  6.71028257  3.84906738
   7.14240322  0.61417755  3.85191651
  10.36309288  6.70661955  3.85227420
  14.67465935  0.63885745  3.85749484
   2.28838955 10.80821172  4.33450081
   6.60845307  4.73507372  4.34385281
   9.84415630 10.79687852  4.34285724
  14.17409350  4.74716935  4.36426244
   1.61397840  4.06876952  4.59146003
   4.83151971 10.13876292  4.64024981
   9.14163732  4.06167384  4.63711271
  12.38602632 10.16035463  4.65927168
   1.05870215  8.15922419  5.14495047
   5.36989473  2.04741012  5.10087966
   8.62758279  8.13091599  5.15004062
  12.92446276  2.07083722  5.19914395
   1.61379416  1.57658361  5.35881397
   4.83270916  7.65567477  5.38281145
   9.15902179  1.58819610  5.40930901
  12.38021319  7.67739592  5.39644860
  -0.25120889 10.85671415  5.75047581
   4.07758308  4.80283654  5.77259261
   7.31226070 10.84469127  5.76600384
  11.62599370  4.78615736  5.75239803
   0.56771810  5.98102564  6.44220482
   3.67278173 12.04740109  6.43050600
   8.00694021  5.95729019  6.48295779
  11.16850904 12.07045044  6.43970813
   2.99916905  9.11125922  6.77909368
   7.24974868  3.04033260  6.71908332
  10.53547863  9.08940619  6.79714539
  -0.15229203  3.05836534  6.72434643
   3.48220889  2.59236497  6.96664818
   6.71742822  8.63099378  6.97627138
  10.97074754  2.67577617  7.14042933
  14.27131264  8.66180218  7.02967163
   3.03201618  6.73178141  7.88583784
   7.27111799  0.60228378  7.80611016
  10.50979093  6.69871147  7.86324333
  14.88788766  0.67521522  7.85548250
   2.21409258  0.03925282  7.93409920
   5.47993499  6.12813026  8.08260987
   8.63189947 12.13643004  8.04296957
  13.09752805  6.11277039  7.83087676
   1.75869505  3.89103397  8.43998501
   4.95555662  9.94155870  8.43011798
   8.73088465  3.58354893  8.74718134
  12.54163873 10.12218325  8.32040463
   1.13690546  9.71646199  8.53881819
   5.41080760  3.60840646  8.51469976
   8.65507638  9.62070548  8.52427303
  13.23160043  3.57522813  8.50244093
   0.46146952  6.61526562  8.98865639
   4.72795414  0.51323233  8.97712833
   8.20133976  6.53855087  9.09891309
  12.28549299  0.51441560  8.98777286
  11.56069694  8.03313629  9.77941060
  11.04179772  4.95866802  9.88071901
   9.97531867  5.71729561 11.99578225
  11.88361970  8.73006691 10.37451940
   9.83567812  6.69724323 12.15832262
   5.16014004  7.21197340 12.69872084
   7.41880972  6.33041009 13.28539273
   5.65901484  4.50229020 11.28522081
   7.69458228  5.91129614 11.61158624
   4.10411926  5.07507739 11.91954178
   5.42788772  4.67824779 13.03294334
   7.33420495  8.78176947 12.70021296
   5.49965816  6.98496025 10.97956173
   7.56854043  8.38754776 10.99938186
   9.53346238  7.86918153 13.29628256
  11.02707848  9.50108361 12.14814219
   9.49254469 10.22395330 12.62771961
   9.74880266  9.80912742 10.93030165
   5.19267779  5.13276752 12.05874959
   7.20462797  6.66367109 12.25439873
   5.70500507  6.57379806 11.98277564
   7.81817340  8.05123416 12.02236727
   9.34328561  8.08480460 12.22685876
   9.94148487  9.46743949 11.95899525
 


--------------------------------------------------------------------------------------------------------


 k-point  1 :   0.2500 0.2500 0.0000  plane waves:  111683
 k-point  2 :  -0.2500 0.2500 0.0000  plane waves:  111725

 maximum and minimum number of plane-waves per node :     18644    18587

 maximum number of plane-waves:    111725
 maximum index in each direction: 
   IXMAX=   27   IYMAX=   21   IZMAX=   43
   IXMIN=  -27   IYMIN=  -22   IZMIN=  -43


 real space projection operators:
  total allocation   :      22558.80 KBytes
  max/ min on nodes  :       3766.46       3752.25


 parallel 3D FFT for wavefunctions:
    minimum data exchange during FFTs selected (reduces bandwidth)
 parallel 3D FFT for charge:
    minimum data exchange during FFTs selected (reduces bandwidth)


 total amount of memory used by VASP MPI-rank0   175282. kBytes
=======================================================================

   base      :      30000. kBytes
   nonlr-proj:      11921. kBytes
   fftplans  :       9317. kBytes
   grid      :      26149. kBytes
   one-center:        902. kBytes
   wavefun   :      96993. kBytes
 
     INWAV:  cpu time    8.6030: real time    8.6887
 Broyden mixing: mesh for mixing (old mesh)
   NGX = 55   NGY = 45   NGZ = 87
  (NGX  =168   NGY  =140   NGZ  =280)
  gives a total of 215325 points

 initial charge density was supplied:
 number of electron    1215.9999905 magnetization       0.0000000
 keeping initial charge density in first step


--------------------------------------------------------------------------------------------------------


 Maximum index for non-local projection operator          433
 Maximum index for augmentation-charges          477 (set IRDMAX)


--------------------------------------------------------------------------------------------------------


 First call to EWALD:  gamma=   0.108
 Maximum number of real-space cells 3x 4x 2
 Maximum number of reciprocal cells 3x 2x 4

    FEWALD:  cpu time    0.0056: real time    0.0058


--------------------------------------- Iteration      1(   1)  ---------------------------------------


    POTLOK:  cpu time    0.2231: real time    0.2245
    SETDIJ:  cpu time    0.0225: real time    0.0226
     EDDAV:  cpu time   27.8559: real time   27.9480
       DOS:  cpu time    0.0006: real time    0.0006
    CHARGE:  cpu time    1.2233: real time    1.2268
    MIXING:  cpu time    0.0066: real time    0.0068
    --------------------------------------------
      LOOP:  cpu time   29.3321: real time   29.4293

 eigenvalue-minimisations  :  6208
 total energy-change (2. order) :-0.1384591E+04  (-0.1339501E+00)
 number of electron    1215.9999904 magnetization       0.0000000
 augmentation part       74.1181870 magnetization      -0.0000000

 Broyden mixing:
  rms(total) = 0.94691E-01    rms(broyden)= 0.94612E-01
  rms(prec ) = 0.95903E-01
  weight for this iteration     100.00

 Free energy of the ion-electron system (eV)
  ---------------------------------------------------
  alpha Z        PSCENC =      2171.30251861
  Ewald energy   TEWEN  =    384404.60359759
  -Hartree energ DENC   =   -481563.59128081
  -exchange      EXHF   =         0.00000000
  -V(xc)+E(xc)   XCENC  =      5343.15733429
  PAW double counting   =    130323.59122596  -129646.32765202
  entropy T*S    EENTRO =        -0.00000000
  eigenvalues    EBANDS =    -18797.56609113
  atomic energy  EATOM  =    106380.23911506
  Solvation  Ediel_sol  =         0.00000000
  ---------------------------------------------------
  free energy    TOTEN  =     -1384.59123247 eV

  energy without entropy =    -1384.59123247  energy(sigma->0) =    -1384.59123247


--------------------------------------------------------------------------------------------------------




--------------------------------------- Iteration      1(   2)  ---------------------------------------


    POTLOK:  cpu time    0.2135: real time    0.2155
    SETDIJ:  cpu time    0.0218: real time    0.0219
     EDDAV:  cpu time   27.7774: real time   27.8653
       DOS:  cpu time    0.0006: real time    0.0006
    CHARGE:  cpu time    1.2198: real time    1.2241
    MIXING:  cpu time    0.0062: real time    0.0063
    --------------------------------------------
      LOOP:  cpu time   29.2394: real time   29.3337

 eigenvalue-minimisations  :  6176
 total energy-change (2. order) :-0.1739106E+01  (-0.1192103E+00)
 number of electron    1215.9999905 magnetization       0.0000000
 augmentation part       74.0410267 magnetization      -0.0000000

 Broyden mixing:
  rms(total) = 0.40987E-01    rms(broyden)= 0.40871E-01
  rms(prec ) = 0.43125E-01
  weight for this iteration     100.00

 eigenvalues of (default mixing * dielectric matrix)
  average eigenvalue GAMMA=   0.7359
  0.7359

 Free energy of the ion-electron system (eV)
  ---------------------------------------------------
  alpha Z        PSCENC =      2171.30251861
  Ewald energy   TEWEN  =    384404.60359759
  -Hartree energ DENC   =   -481564.97225330
  -exchange      EXHF   =         0.00000000
  -V(xc)+E(xc)   XCENC  =      5343.25666964
  PAW double counting   =    130180.66563666  -129502.36617570
  entropy T*S    EENTRO =        -0.00000000
  eigenvalues    EBANDS =    -18799.05944733
  atomic energy  EATOM  =    106380.23911506
  Solvation  Ediel_sol  =         0.00000000
  ---------------------------------------------------
  free energy    TOTEN  =     -1386.33033879 eV

  energy without entropy =    -1386.33033879  energy(sigma->0) =    -1386.33033879


--------------------------------------------------------------------------------------------------------




--------------------------------------- Iteration      1(   3)  ---------------------------------------


    POTLOK:  cpu time    0.2129: real time    0.2135
    SETDIJ:  cpu time    0.0218: real time    0.0219
     EDDAV:  cpu time   29.4618: real time   29.5548
       DOS:  cpu time    0.0007: real time    0.0006
    CHARGE:  cpu time    1.2219: real time    1.2252
    MIXING:  cpu time    0.0063: real time    0.0063
    --------------------------------------------
      LOOP:  cpu time   30.9254: real time   31.0225

 eigenvalue-minimisations  :  6656
 total energy-change (2. order) :-0.9698425E-02  (-0.4336874E-02)
 number of electron    1215.9999905 magnetization       0.0000000
 augmentation part       74.0740872 magnetization      -0.0000000

 Broyden mixing:
  rms(total) = 0.27664E-01    rms(broyden)= 0.27646E-01
  rms(prec ) = 0.28070E-01
  weight for this iteration     100.00

 eigenvalues of (default mixing * dielectric matrix)
  average eigenvalue GAMMA=   0.6899
  0.6899  0.6899

 Free energy of the ion-electron system (eV)
  ---------------------------------------------------
  alpha Z        PSCENC =      2171.30251861
  Ewald energy   TEWEN  =    384404.60359759
  -Hartree energ DENC   =   -481562.52345327
  -exchange      EXHF   =         0.00000000
  -V(xc)+E(xc)   XCENC  =      5343.05814636
  PAW double counting   =    130207.11737859  -129528.06405242
  entropy T*S    EENTRO =        -0.00000000
  eigenvalues    EBANDS =    -18802.07328771
  atomic energy  EATOM  =    106380.23911506
  Solvation  Ediel_sol  =         0.00000000
  ---------------------------------------------------
  free energy    TOTEN  =     -1386.34003721 eV

  energy without entropy =    -1386.34003721  energy(sigma->0) =    -1386.34003721


--------------------------------------------------------------------------------------------------------




--------------------------------------- Iteration      1(   4)  ---------------------------------------


    POTLOK:  cpu time    0.2111: real time    0.2129
    SETDIJ:  cpu time    0.0217: real time    0.0218
     EDDAV:  cpu time   25.2100: real time   25.2869
       DOS:  cpu time    0.0006: real time    0.0006
    CHARGE:  cpu time    1.2290: real time    1.2322
    MIXING:  cpu time    0.0066: real time    0.0067
    --------------------------------------------
      LOOP:  cpu time   26.6790: real time   26.7610

 eigenvalue-minimisations  :  5472
 total energy-change (2. order) :-0.5400390E-04  (-0.2236267E-03)
 number of electron    1215.9999905 magnetization       0.0000000
 augmentation part       74.0699187 magnetization       0.0000000

 Broyden mixing:
  rms(total) = 0.22380E-01    rms(broyden)= 0.22379E-01
  rms(prec ) = 0.22675E-01
  weight for this iteration     100.00

 eigenvalues of (default mixing * dielectric matrix)
  average eigenvalue GAMMA=   0.6851
  0.7710  0.7710  0.5134

 Free energy of the ion-electron system (eV)
  ---------------------------------------------------
  alpha Z        PSCENC =      2171.30251861
  Ewald energy   TEWEN  =    384404.60359759
  -Hartree energ DENC   =   -481563.26456299
  -exchange      EXHF   =         0.00000000
  -V(xc)+E(xc)   XCENC  =      5343.12657179
  PAW double counting   =    130236.37894647  -129557.27733098
  entropy T*S    EENTRO =        -0.00000000
  eigenvalues    EBANDS =    -18801.44894675
  atomic energy  EATOM  =    106380.23911506
  Solvation  Ediel_sol  =         0.00000000
  ---------------------------------------------------
  free energy    TOTEN  =     -1386.34009122 eV

  energy without entropy =    -1386.34009122  energy(sigma->0) =    -1386.34009122


--------------------------------------------------------------------------------------------------------




--------------------------------------- Iteration      1(   5)  ---------------------------------------


    POTLOK:  cpu time    0.2109: real time    0.2130
    SETDIJ:  cpu time    0.0218: real time    0.0218
     EDDAV:  cpu time   29.2116: real time   29.3029
       DOS:  cpu time    0.0006: real time    0.0006
    CHARGE:  cpu time    1.2249: real time    1.2282
    MIXING:  cpu time    0.0068: real time    0.0068
    --------------------------------------------
      LOOP:  cpu time   30.6767: real time   30.7734

 eigenvalue-minimisations  :  6592
 total energy-change (2. order) :-0.1082639E-04  (-0.2092031E-04)
 number of electron    1215.9999905 magnetization       0.0000000
 augmentation part       74.0756223 magnetization       0.0000000

 Broyden mixing:
  rms(total) = 0.18781E-01    rms(broyden)= 0.18781E-01
  rms(prec ) = 0.19034E-01
  weight for this iteration     100.00

 eigenvalues of (default mixing * dielectric matrix)
  average eigenvalue GAMMA=   0.7189
  0.8945  0.8945  0.5433  0.5433

 Free energy of the ion-electron system (eV)
  ---------------------------------------------------
  alpha Z        PSCENC =      2171.30251861
  Ewald energy   TEWEN  =    384404.60359759
  -Hartree energ DENC   =   -481563.30285178
  -exchange      EXHF   =         0.00000000
  -V(xc)+E(xc)   XCENC  =      5343.13057480
  PAW double counting   =    130254.41276836  -129575.27584167
  entropy T*S    EENTRO =        -0.00000000
  eigenvalues    EBANDS =    -18801.44998301
  atomic energy  EATOM  =    106380.23911506
  Solvation  Ediel_sol  =         0.00000000
  ---------------------------------------------------
  free energy    TOTEN  =     -1386.34010204 eV

  energy without entropy =    -1386.34010204  energy(sigma->0) =    -1386.34010204


--------------------------------------------------------------------------------------------------------




--------------------------------------- Iteration      1(   6)  ---------------------------------------


    POTLOK:  cpu time    0.2125: real time    0.2133
    SETDIJ:  cpu time    0.0216: real time    0.0217
     EDDAV:  cpu time   29.1103: real time   29.2001
       DOS:  cpu time    0.0006: real time    0.0006
    CHARGE:  cpu time    1.2237: real time    1.2291
    MIXING:  cpu time    0.0072: real time    0.0072
    --------------------------------------------
      LOOP:  cpu time   30.5760: real time   30.6720

 eigenvalue-minimisations  :  6560
 total energy-change (2. order) :-0.1051350E-04  (-0.2336605E-05)
 number of electron    1215.9999905 magnetization       0.0000000
 augmentation part       74.0771301 magnetization       0.0000000

 Broyden mixing:
  rms(total) = 0.16343E-01    rms(broyden)= 0.16343E-01
  rms(prec ) = 0.16573E-01
  weight for this iteration     100.00

 eigenvalues of (default mixing * dielectric matrix)
  average eigenvalue GAMMA=   0.7993
  1.1316  1.1316  0.5249  0.6042  0.6042

 Free energy of the ion-electron system (eV)
  ---------------------------------------------------
  alpha Z        PSCENC =      2171.30251861
  Ewald energy   TEWEN  =    384404.60359759
  -Hartree energ DENC   =   -481563.42159003
  -exchange      EXHF   =         0.00000000
  -V(xc)+E(xc)   XCENC  =      5343.13798360
  PAW double counting   =    130268.13629328  -129588.98736388
  entropy T*S    EENTRO =        -0.00000000
  eigenvalues    EBANDS =    -18801.35066676
  atomic energy  EATOM  =    106380.23911506
  Solvation  Ediel_sol  =         0.00000000
  ---------------------------------------------------
  free energy    TOTEN  =     -1386.34011256 eV

  energy without entropy =    -1386.34011256  energy(sigma->0) =    -1386.34011256


--------------------------------------------------------------------------------------------------------




--------------------------------------- Iteration      1(   7)  ---------------------------------------


    POTLOK:  cpu time    0.2113: real time    0.2119
    SETDIJ:  cpu time    0.0224: real time    0.0225
     EDDAV:  cpu time   28.8828: real time   28.9704
       DOS:  cpu time    0.0006: real time    0.0006
    CHARGE:  cpu time    1.2189: real time    1.2242
    MIXING:  cpu time    0.0077: real time    0.0077
    --------------------------------------------
      LOOP:  cpu time   30.3436: real time   30.4374

 eigenvalue-minimisations  :  6464
 total energy-change (2. order) :-0.7786584E-05  (-0.2480356E-05)
 number of electron    1215.9999905 magnetization       0.0000000
 augmentation part       74.0783467 magnetization       0.0000000

 Broyden mixing:
  rms(total) = 0.12895E-01    rms(broyden)= 0.12895E-01
  rms(prec ) = 0.13076E-01
  weight for this iteration     100.00

 eigenvalues of (default mixing * dielectric matrix)
  average eigenvalue GAMMA=   0.8555
  1.3394  1.3394  0.6803  0.6803  0.5468  0.5468

 Free energy of the ion-electron system (eV)
  ---------------------------------------------------
  alpha Z        PSCENC =      2171.30251861
  Ewald energy   TEWEN  =    384404.60359759
  -Hartree energ DENC   =   -481563.46007999
  -exchange      EXHF   =         0.00000000
  -V(xc)+E(xc)   XCENC  =      5343.14348939
  PAW double counting   =    130286.54078386  -129607.37855917
  entropy T*S    EENTRO =        -0.00000000
  eigenvalues    EBANDS =    -18801.33098568
  atomic energy  EATOM  =    106380.23911506
  Solvation  Ediel_sol  =         0.00000000
  ---------------------------------------------------
  free energy    TOTEN  =     -1386.34012034 eV

  energy without entropy =    -1386.34012034  energy(sigma->0) =    -1386.34012034


--------------------------------------------------------------------------------------------------------




--------------------------------------- Iteration      1(   8)  ---------------------------------------


    POTLOK:  cpu time    0.2125: real time    0.2143
    SETDIJ:  cpu time    0.0218: real time    0.0219
     EDDAV:  cpu time   27.3763: real time   27.4601
       DOS:  cpu time    0.0010: real time    0.0006
    CHARGE:  cpu time    1.2127: real time    1.2163
    MIXING:  cpu time    0.0079: real time    0.0079
    --------------------------------------------
      LOOP:  cpu time   28.8321: real time   28.9211

 eigenvalue-minimisations  :  6048
 total energy-change (2. order) :-0.5158858E-05  (-0.1742384E-05)
 number of electron    1215.9999905 magnetization       0.0000000
 augmentation part       74.0799536 magnetization       0.0000000

 Broyden mixing:
  rms(total) = 0.10575E-01    rms(broyden)= 0.10575E-01
  rms(prec ) = 0.10715E-01
  weight for this iteration     100.00

 eigenvalues of (default mixing * dielectric matrix)
  average eigenvalue GAMMA=   0.9047
  1.5635  1.5635  0.7596  0.7596  0.5288  0.5789  0.5789

 Free energy of the ion-electron system (eV)
  ---------------------------------------------------
  alpha Z        PSCENC =      2171.30251861
  Ewald energy   TEWEN  =    384404.60359759
  -Hartree energ DENC   =   -481563.48430198
  -exchange      EXHF   =         0.00000000
  -V(xc)+E(xc)   XCENC  =      5343.14661775
  PAW double counting   =    130299.07541141  -129619.90286359
  entropy T*S    EENTRO =        -0.00000000
  eigenvalues    EBANDS =    -18801.32022034
  atomic energy  EATOM  =    106380.23911506
  Solvation  Ediel_sol  =         0.00000000
  ---------------------------------------------------
  free energy    TOTEN  =     -1386.34012550 eV

  energy without entropy =    -1386.34012550  energy(sigma->0) =    -1386.34012550


--------------------------------------------------------------------------------------------------------




--------------------------------------- Iteration      1(   9)  ---------------------------------------


    POTLOK:  cpu time    0.2121: real time    0.2128
    SETDIJ:  cpu time    0.0218: real time    0.0219
     EDDAV:  cpu time   20.0459: real time   20.1102
       DOS:  cpu time    0.0007: real time    0.0007
    CHARGE:  cpu time    1.2231: real time    1.2265
    MIXING:  cpu time    0.0082: real time    0.0082
    --------------------------------------------
      LOOP:  cpu time   21.5117: real time   21.5802

 eigenvalue-minimisations  :  4000
 total energy-change (2. order) :-0.4192596E-05  (-0.4417996E-06)
 number of electron    1215.9999905 magnetization       0.0000000
 augmentation part       74.0809220 magnetization       0.0000000

 Broyden mixing:
  rms(total) = 0.90907E-02    rms(broyden)= 0.90907E-02
  rms(prec ) = 0.92135E-02
  weight for this iteration     100.00

 eigenvalues of (default mixing * dielectric matrix)
  average eigenvalue GAMMA=   1.0460
  2.0525  2.0525  0.9024  0.9024  0.6550  0.6550  0.5741  0.5741

 Free energy of the ion-electron system (eV)
  ---------------------------------------------------
  alpha Z        PSCENC =      2171.30251861
  Ewald energy   TEWEN  =    384404.60359759
  -Hartree energ DENC   =   -481563.49207210
  -exchange      EXHF   =         0.00000000
  -V(xc)+E(xc)   XCENC  =      5343.14785657
  PAW double counting   =    130307.13185923  -129627.95703919
  entropy T*S    EENTRO =        -0.00000000
  eigenvalues    EBANDS =    -18801.31596545
  atomic energy  EATOM  =    106380.23911506
  Solvation  Ediel_sol  =         0.00000000
  ---------------------------------------------------
  free energy    TOTEN  =     -1386.34012970 eV

  energy without entropy =    -1386.34012970  energy(sigma->0) =    -1386.34012970


--------------------------------------------------------------------------------------------------------




--------------------------------------- Iteration      1(  10)  ---------------------------------------


    POTLOK:  cpu time    0.2108: real time    0.2115
    SETDIJ:  cpu time    0.0219: real time    0.0219
     EDDAV:  cpu time   28.9045: real time   28.9952
       DOS:  cpu time    0.0006: real time    0.0006
    CHARGE:  cpu time    1.2211: real time    1.2244
    MIXING:  cpu time    0.0086: real time    0.0086
    --------------------------------------------
      LOOP:  cpu time   30.3674: real time   30.4621

 eigenvalue-minimisations  :  6432
 total energy-change (2. order) :-0.5420181E-05  (-0.2439371E-05)
 number of electron    1215.9999905 magnetization       0.0000000
 augmentation part       74.0822345 magnetization       0.0000000

 Broyden mixing:
[...]
   -.268E+02 0.260E+02 -.259E+03   0.268E+02 -.254E+02 0.260E+03   -.334E-01 -.631E+00 -.126E+01   0.474E-04 -.990E-04 0.748E-04
   0.573E+02 -.415E+02 -.226E+03   -.600E+02 0.447E+02 0.230E+03   0.272E+01 -.317E+01 -.352E+01   0.282E-05 -.708E-05 -.498E-05
   -.400E+01 0.297E+02 -.238E+03   0.505E+01 -.314E+02 0.243E+03   -.106E+01 0.168E+01 -.506E+01   0.525E-04 -.285E-04 -.246E-05
   -.163E+00 0.551E+02 -.206E+03   0.240E+01 -.583E+02 0.203E+03   -.225E+01 0.320E+01 0.380E+01   0.105E-04 -.216E-04 -.853E-05
   -.717E+01 0.603E+02 -.212E+03   0.944E+01 -.640E+02 0.209E+03   -.225E+01 0.376E+01 0.302E+01   0.467E-04 -.278E-04 0.170E-04
   0.739E+02 0.170E+02 -.211E+03   -.793E+02 -.173E+02 0.211E+03   0.545E+01 0.334E+00 0.663E+00   -.157E-04 -.175E-04 -.121E-04
   0.852E+01 0.447E+02 -.227E+03   -.739E+01 -.470E+02 0.232E+03   -.115E+01 0.231E+01 -.483E+01   0.160E-04 -.198E-04 0.178E-05
   0.438E+02 -.616E+02 -.230E+03   -.461E+02 0.651E+02 0.233E+03   0.234E+01 -.354E+01 -.325E+01   0.259E-04 -.264E-05 -.421E-05
   0.441E+02 -.299E+02 -.193E+03   -.451E+02 0.319E+02 0.188E+03   0.101E+01 -.202E+01 0.492E+01   0.283E-05 -.895E-05 -.216E-04
   0.409E+02 -.456E+02 -.196E+03   -.422E+02 0.472E+02 0.191E+03   0.128E+01 -.168E+01 0.501E+01   0.476E-05 -.597E-05 0.709E-05
   -.238E+02 0.484E+01 -.244E+03   0.247E+02 -.581E+01 0.250E+03   -.917E+00 0.986E+00 -.516E+01   0.340E-04 -.457E-04 -.304E-04
   -.711E+02 -.303E+02 -.233E+03   0.764E+02 0.305E+02 0.234E+03   -.529E+01 -.243E+00 -.103E+01   0.226E-04 -.174E-04 0.700E-06
   0.131E+02 -.671E+02 -.231E+03   -.152E+02 0.708E+02 0.234E+03   0.217E+01 -.372E+01 -.326E+01   0.157E-04 0.450E-05 -.587E-05
   0.372E+01 -.542E+02 -.211E+03   -.479E+01 0.560E+02 0.206E+03   0.105E+01 -.172E+01 0.503E+01   0.210E-04 0.173E-04 0.242E-04
   0.117E+03 0.116E+03 -.858E+03   -.117E+03 -.115E+03 0.858E+03   -.961E-01 -.207E+00 -.335E-01   0.290E-04 -.764E-04 -.184E-04
   0.433E+02 0.560E+02 -.888E+03   -.441E+02 -.555E+02 0.888E+03   0.752E+00 -.446E+00 -.303E+00   0.168E-03 -.922E-04 0.215E-04
   0.152E+03 -.407E+02 -.854E+03   -.152E+03 0.408E+02 0.854E+03   -.247E-01 -.129E+00 -.999E-01   0.522E-04 -.518E-04 -.313E-04
   0.101E+03 -.119E+03 -.882E+03   -.101E+03 0.119E+03 0.882E+03   0.104E+00 -.208E+00 -.190E+00   0.146E-03 -.635E-04 0.484E-04
   -.606E+02 -.327E+02 -.923E+03   0.620E+02 0.303E+02 0.920E+03   -.136E+01 0.236E+01 0.261E+01   0.160E-03 -.158E-03 0.124E-03
   -.671E+02 -.170E+03 -.906E+03   0.664E+02 0.170E+03 0.907E+03   0.726E+00 0.199E+00 -.422E+00   0.891E-04 -.516E-04 0.578E-04
 -----------------------------------------------------------------------------------------------
   0.170E+02 -.942E+01 0.768E+02   0.142E-12 0.455E-12 -.796E-12   -.173E+02 0.930E+01 -.769E+02   0.278E-02 -.177E-03 0.256E-01
 
 
 POSITION                                       TOTAL-FORCE (eV/Angst)
 -----------------------------------------------------------------------------------
      0.99046      3.89727      0.91670        -1.487958     -1.873153     -0.695055
      4.22806      9.97101      0.91670        -1.470629     -1.886387     -0.752022
      8.54576      3.89727      0.91670        -1.350251     -1.900406     -0.734243
     11.78336      9.97101      0.91670        -1.372302     -1.848671     -0.762033
      0.16045     10.12553      1.16818        -0.235505      1.663182      0.334375
      4.47815      4.05179      1.16818        -0.144738      1.714555      0.188951
      7.71575     10.12553      1.16818        -0.101770      1.766228      0.252599
     12.03345      4.05179      1.16818        -0.179006      1.765133      0.515569
      3.52055      0.82336      1.36715        -0.820927     -0.869394      1.540622
      6.75815      6.89709      1.36715        -0.769752     -0.909958      1.592608
     11.07585      0.82336      1.36715        -0.796774     -0.803500      1.723395
     14.31345      6.89709      1.36715        -0.925080     -0.941522      1.737017
      2.69053      7.05173      1.61862         1.514517      0.480851     -2.496121
      7.00822      0.97799      1.61862         1.619118      0.463819     -2.492733
     10.24583      7.05173      1.61862         1.656376      0.367555     -2.424174
     14.56352      0.97799      1.61862         1.510696      0.526645     -2.448459
      0.54212     11.93796      4.09608         0.000380      0.001157     -0.004265
      4.87070      5.87383      4.10337         0.001285      0.000922      0.004824
      8.11920     11.95842      4.11413         0.000567      0.002230     -0.006867
     12.41262      5.86574      4.13616         0.001652     -0.006822      0.004930
      0.82414      6.00956      4.37281        -0.003088     -0.003679     -0.006723
      4.05055     12.08050      4.36686         0.001109      0.001099      0.001814
      8.37442      5.97926      4.38357         0.005783     -0.003506      0.006927
     11.59671     12.09151      4.38013        -0.001320      0.003377     -0.002817
     -0.17426      2.79939      4.58788        -0.002415      0.000758     -0.002730
      3.04895      8.86415      4.58873        -0.000344     -0.000127     -0.003810
      7.37752      2.77217      4.57873         0.004284      0.001171     -0.000339
     10.65625      8.86318      4.58289         0.000389     -0.000290     -0.005655
      3.36712      2.93579      4.80770        -0.001489      0.001241     -0.000637
      6.58519      9.01914      4.80314         0.002770      0.001884     -0.005262
     10.92618      2.97473      4.89294         0.000496     -0.005016      0.003135
     14.14480      8.99573      4.84630        -0.004083      0.001919     -0.008405
      1.18892      7.80039      7.52199         0.001161     -0.002166      0.005578
      5.46029      1.68564      7.49471         0.002753     -0.002962      0.004574
      8.74324      7.82633      7.34459        -0.003090     -0.000885     -0.000302
     13.06000      1.68507      7.52970        -0.006642      0.005951     -0.004807
      1.49415      1.94726      7.47977        -0.002170     -0.001991      0.002119
      4.71731      8.00210      7.50947         0.007328     -0.003257      0.001350
      8.95766      1.91136      7.57543         0.003136      0.012596      0.002841
     12.27451      8.05527      7.63715         0.001638     -0.001705      0.002500
     -0.55331     10.79919      7.77780         0.004648      0.002992     -0.004751
      3.74966      4.71784      7.80451         0.008004     -0.003564      0.000135
      6.97111     10.75460      7.79685         0.001144      0.001887     -0.002176
     11.54220      4.69751      7.94190        -0.004796      0.004524      0.009776
     -0.19322      4.94300      8.05296         0.003694     -0.007088     -0.001800
      2.93492     11.00849      8.05915         0.005802      0.005388      0.008401
      7.21584      4.81527      8.05656         0.001570     -0.003153     -0.000585
     10.48494     11.02696      8.06706         0.000791      0.004885     -0.001540
      9.99339      6.58414     10.16624         0.007137      0.001802     -0.011461
      0.18233      2.09605      0.00000         0.271413      0.963495      1.270563
      3.41993      8.16979      0.00000         0.280909      0.986289      1.273200
      7.73763      2.09605      0.00000         0.249951      0.963177      1.279344
     10.97523      8.16979      0.00000         0.254122      0.996273      1.283017
      2.77584      5.24249      0.37900        -0.008147     -0.926141      0.591225
      6.01345     11.31622      0.37900        -0.040149     -0.936379      0.586831
     10.33114      5.24249      0.37900        -0.086729     -0.916195      0.574598
     13.56875     11.31622      0.37900        -0.040331     -0.930839      0.573088
      2.16153     10.82255      0.59691         0.400427      1.201988     -0.186587
      6.47922      4.74881      0.59691         0.374610      1.216232     -0.194704
      9.71683     10.82255      0.59691         0.360178      1.177977     -0.195832
     14.03452      4.74881      0.59691         0.413481      1.187650     -0.209272
      2.73983      2.74654      1.05910         1.184662     -1.023911     -0.420469
      5.97744      8.82028      1.05910         1.162025     -1.043104     -0.408148
     10.29513      2.74654      1.05910         1.127528     -1.041577     -0.463084
     13.53273      8.82028      1.05910         1.142247     -1.017875     -0.458266
      0.94100      8.20246      1.47622        -1.107797     -0.298133     -0.903735
      5.25870      2.12872      1.47622        -1.131744     -0.321047     -0.906011
      8.49630      8.20246      1.47622        -1.181547     -0.301516     -0.905860
     12.81400      2.12872      1.47622        -1.127381     -0.350175     -0.917790
      1.51931      0.12646      1.93841         0.347626     -0.082060      0.222436
      4.75691      6.20019      1.93841         0.440384     -0.008599      0.241613
      9.07461      0.12646      1.93841         0.419056     -0.053784      0.296096
     12.31221      6.20019      1.93841         0.374874     -0.073871      0.304325
      0.90515      5.70640      2.15632        -0.348221      0.344782      0.103421
      4.14276     11.78014      2.15632        -0.346306      0.305882      0.149072
      8.46045      5.70640      2.15632        -0.408311      0.319558      0.238407
     11.69806     11.78014      2.15632        -0.391635      0.306577      0.205293
      0.26091      2.77910      2.53532         0.217493      0.390334      0.465561
      3.49852      8.85284      2.53532         0.242810      0.424641      0.605407
      7.81621      2.77910      2.53532         0.207403      0.375452      0.461067
     11.05382      8.85284      2.53532         0.272716      0.425945      0.570107
     -0.21877     10.11859      3.20312        -0.009360      0.005584      0.003909
      4.13326      4.05267      3.20197        -0.002663     -0.001246     -0.001059
      7.35765     10.12533      3.20435        -0.004753     -0.000769      0.002384
     11.66917      4.03629      3.21150         0.006360      0.019971     -0.002480
      3.39782      1.13152      3.50266        -0.003391     -0.002543      0.002524
      6.64136      7.20927      3.51988        -0.001765     -0.004711     -0.009890
     10.95681      1.13787      3.52384         0.008674     -0.003617     -0.002421
     14.19550      7.21042      3.52085         0.009946     -0.007932      0.013111
      2.81968      6.71028      3.84907         0.008891      0.008196     -0.001743
      7.14240      0.61418      3.85192        -0.003163      0.003607     -0.002111
     10.36309      6.70662      3.85227        -0.003077      0.003904     -0.000092
     14.67466      0.63886      3.85749        -0.001039     -0.000779     -0.000046
      2.28839     10.80821      4.33450         0.006166     -0.001078      0.004175
      6.60845      4.73507      4.34385         0.002125     -0.008781     -0.011576
      9.84416     10.79688      4.34286         0.008422     -0.002826      0.002873
     14.17409      4.74717      4.36426        -0.002321      0.003157     -0.000625
      1.61398      4.06877      4.59146         0.002722     -0.007092      0.000466
      4.83152     10.13876      4.64025        -0.001962     -0.003361     -0.000129
      9.14164      4.06167      4.63711        -0.014361      0.009928      0.002909
     12.38603     10.16035      4.65927         0.004779     -0.001824     -0.004323
      1.05870      8.15922      5.14495        -0.001079     -0.000970     -0.008312
      5.36989      2.04741      5.10088        -0.004613      0.003901      0.001416
      8.62758      8.13092      5.15004         0.000798      0.000157      0.000894
     12.92446      2.07084      5.19914         0.004820      0.006994     -0.002034
      1.61379      1.57658      5.35881         0.002184      0.002867      0.000958
      4.83271      7.65567      5.38281        -0.002132      0.001659     -0.001627
      9.15902      1.58820      5.40931         0.002195     -0.008204     -0.002233
     12.38021      7.67740      5.39645         0.004131      0.005723      0.003543
     -0.25121     10.85671      5.75048        -0.000792      0.006529     -0.003498
      4.07758      4.80284      5.77259        -0.005176     -0.002262      0.011292
      7.31226     10.84469      5.76600        -0.004403      0.000896     -0.002438
     11.62599      4.78616      5.75240         0.004339      0.000209      0.013342
      0.56772      5.98103      6.44220        -0.003803      0.010777      0.002592
      3.67278     12.04740      6.43051         0.006053     -0.000760     -0.008939
      8.00694      5.95729      6.48296         0.003172      0.002140     -0.003044
     11.16851     12.07045      6.43971         0.012914     -0.001615      0.005705
      2.99917      9.11126      6.77909        -0.006734     -0.006189      0.002197
      7.24975      3.04033      6.71908         0.002899     -0.003292      0.002270
     10.53548      9.08941      6.79715         0.004477      0.004354     -0.004754
     -0.15229      3.05837      6.72435         0.001882     -0.000942     -0.004454
      3.48221      2.59236      6.96665         0.003036      0.000787     -0.004638
      6.71743      8.63099      6.97627         0.005062     -0.013117      0.005336
     10.97075      2.67578      7.14043        -0.009402      0.011471     -0.002613
     14.27131      8.66180      7.02967         0.000255     -0.002899     -0.005874
      3.03202      6.73178      7.88584         0.000822      0.002829     -0.001900
      7.27112      0.60228      7.80611         0.003008     -0.000901     -0.012174
     10.50979      6.69871      7.86324        -0.006051     -0.004977     -0.012609
     14.88789      0.67522      7.85548         0.008273     -0.005199      0.001902
      2.21409      0.03925      7.93410        -0.003401     -0.003216     -0.001718
      5.47993      6.12813      8.08261        -0.008664      0.007517     -0.015197
      8.63190     12.13643      8.04297        -0.001362     -0.009238      0.002373
     13.09753      6.11277      7.83088         0.002178     -0.002074      0.013761
      1.75870      3.89103      8.43999        -0.007175      0.002868     -0.005720
      4.95556      9.94156      8.43012        -0.006722     -0.006612      0.002478
      8.73088      3.58355      8.74718         0.001401      0.002521     -0.002091
     12.54164     10.12218      8.32040        -0.001313     -0.002056     -0.002459
      1.13691      9.71646      8.53882        -0.004957     -0.003296     -0.002005
      5.41081      3.60841      8.51470        -0.005719      0.002438      0.000147
      8.65508      9.62071      8.52427        -0.014213      0.009790     -0.005462
     13.23160      3.57523      8.50244        -0.002876     -0.004173     -0.008182
      0.46147      6.61527      8.98866        -0.008023      0.011868     -0.003311
      4.72795      0.51323      8.97713        -0.000835     -0.004392     -0.012674
      8.20134      6.53855      9.09891        -0.005657     -0.000322      0.002585
     12.28549      0.51442      8.98777        -0.014501     -0.008151      0.004361
     11.56070      8.03314      9.77941        -0.013664     -0.006266      0.001740
     11.04180      4.95867      9.88072         0.002487     -0.007213      0.018596
      9.97532      5.71730     11.99578        -0.018686      0.016100      0.009570
     11.88362      8.73007     10.37452         0.006092     -0.014077     -0.005549
      9.83568      6.69724     12.15832        -0.005358     -0.037099     -0.011711
      5.16014      7.21197     12.69872         0.003144      0.002245     -0.016370
      7.41881      6.33041     13.28539        -0.007395      0.011374     -0.010796
      5.65901      4.50229     11.28522        -0.005904     -0.000047     -0.002682
      7.69458      5.91130     11.61159         0.004116     -0.019042     -0.017426
      4.10412      5.07508     11.91954        -0.026116      0.012081     -0.010111
      5.42789      4.67825     13.03294        -0.019344      0.006699     -0.001340
      7.33420      8.78177     12.70021        -0.014891      0.011036     -0.016585
      5.49966      6.98496     10.97956        -0.004139      0.009726     -0.024857
      7.56854      8.38755     10.99938         0.005405     -0.007959     -0.003115
      9.53346      7.86918     13.29628        -0.013258      0.009027      0.011616
     11.02708      9.50108     12.14814        -0.016172     -0.000013     -0.020642
      9.49254     10.22395     12.62772        -0.009079      0.004911     -0.030784
      9.74880      9.80913     10.93030        -0.019142     -0.004651     -0.034719
      5.19268      5.13277     12.05875         0.005479      0.025864      0.007633
      7.20463      6.66367     12.25440        -0.010061      0.034561      0.018544
      5.70501      6.57380     11.98278        -0.011887     -0.024424      0.001072
      7.81817      8.05123     12.02237        -0.023705     -0.018731     -0.006739
      9.34329      8.08480     12.22686         0.002397      0.018600      0.002302
      9.94148      9.46744     11.95900         0.025435     -0.019519      0.020127
 -----------------------------------------------------------------------------------
    total drift:                               -0.257715     -0.117891     -0.039644


--------------------------------------------------------------------------------------------------------



  FREE ENERGIE OF THE ION-ELECTRON SYSTEM (eV)
  ---------------------------------------------------
  free  energy   TOTEN  =     -1405.82076106 eV

  energy  without entropy=    -1405.82076106  energy(sigma->0) =    -1405.82076106
 


--------------------------------------------------------------------------------------------------------


    POTLOK:  cpu time    0.2339: real time    0.2345


--------------------------------------------------------------------------------------------------------


 Dimer: Init Mode:
 Dimer: MODECAR found
 Dimer: -----------------
 Dimer: Itr    1 Rot    0

 Dimer: Central Point
 Dimer: F0      0.159502

 Dimer: Projection
 Dimer: N*F0 -1.232257545352359E-002
 Dimer: F0sq  2.544077709087872E-002
 Dimer: Feffsq   1.518458658077819E-004
 
 stress matrix after NEB project (eV)
    -50.95183    -23.73715     -2.33059
    -23.73715    -72.24792      1.47586
     -2.33059      1.47586    -11.48433
  FORCES: max atom, RMS     0.040491    0.012269
  FORCE total and by dimension    0.159502    0.037099
  Stress total and by dimension   95.340780   72.247915
 OPT: skip step - force has converged
 writing wavefunctions
     LOOP+:  cpu time  399.0555: real time  400.5143
    4ORBIT:  cpu time    0.0000: real time    0.0000

 total amount of memory used by VASP MPI-rank0   175282. kBytes
=======================================================================

   base      :      30000. kBytes
   nonlr-proj:      11921. kBytes
   fftplans  :       9317. kBytes
   grid      :      26149. kBytes
   one-center:        902. kBytes
   wavefun   :      96993. kBytes
 
  
  
 General timing and accounting informations for this job:
 ========================================================
  
                  Total CPU time used (sec):      428.514
                            User time (sec):      403.936
                          System time (sec):       24.578
                         Elapsed time (sec):      430.458
  
                   Maximum memory used (kb):      443572.
                   Average memory used (kb):           0.
  
                          Minor page faults:        94607
                          Major page faults:            0
                 Voluntary context switches:         1016
