       N       E                     dE             d eps       ncg     rms          rms(c)
DAV:   1    -0.137119935329E+04   -0.13712E+04   -0.13357E+00  6304   0.978E-01    0.950E-01
DAV:   2    -0.137294286955E+04   -0.17435E+01   -0.11890E+00  6016   0.949E-01    0.411E-01
DAV:   3    -0.137295265434E+04   -0.97848E-02   -0.43669E-02  6656   0.230E-01    0.277E-01
DAV:   4    -0.137295270614E+04   -0.51794E-04   -0.21521E-03  5504   0.572E-02    0.224E-01
DAV:   5    -0.137295271469E+04   -0.85543E-05   -0.19584E-04  6592   0.180E-02    0.188E-01
DAV:   6    -0.137295272744E+04   -0.12749E-04   -0.23030E-05  6592   0.715E-03    0.162E-01
DAV:   7    -0.137295273530E+04   -0.78585E-05   -0.25173E-05  6720   0.850E-03    0.128E-01
DAV:   8    -0.137295274040E+04   -0.50989E-05   -0.16367E-05  5952   0.631E-03    0.106E-01
DAV:   9    -0.137295274462E+04   -0.42257E-05   -0.38201E-06  3968   0.320E-03    0.916E-02
DAV:  10    -0.137295275002E+04   -0.53986E-05   -0.25314E-05  6400   0.803E-03    0.547E-02
DAV:  11    -0.137295275404E+04   -0.40179E-05   -0.27396E-05  6720   0.842E-03    0.206E-02
DAV:  12    -0.137295275512E+04   -0.10836E-05   -0.31424E-06  3552   0.277E-03    0.119E-02
DAV:  13    -0.137295275539E+04   -0.26808E-06   -0.16719E-06  2944   0.199E-03
   1 F= -.13922506E+04 E0= -.13922506E+04  d E =-.171308E-27  mag=     0.0000
