       N       E                     dE             d eps       ncg     rms          rms(c)
DAV:   1    -0.127859847312E+04   -0.12786E+04   -0.12583E+00  6368   0.963E-01    0.950E-01
DAV:   2    -0.128033643254E+04   -0.17380E+01   -0.11232E+00  6272   0.934E-01    0.400E-01
DAV:   3    -0.128034623850E+04   -0.98060E-02   -0.37990E-02  6784   0.219E-01    0.275E-01
DAV:   4    -0.128034626900E+04   -0.30495E-04   -0.19340E-03  5792   0.545E-02    0.223E-01
DAV:   5    -0.128034627617E+04   -0.71712E-05   -0.17762E-04  6848   0.173E-02    0.189E-01
DAV:   6    -0.128034629264E+04   -0.16473E-04   -0.20762E-05  7264   0.689E-03    0.163E-01
DAV:   7    -0.128034630345E+04   -0.10813E-04   -0.21902E-05  6912   0.802E-03    0.130E-01
DAV:   8    -0.128034631152E+04   -0.80714E-05   -0.15939E-05  7136   0.636E-03    0.107E-01
DAV:   9    -0.128034631734E+04   -0.58165E-05   -0.42911E-06  7392   0.315E-03    0.917E-02
DAV:  10    -0.128034632440E+04   -0.70586E-05   -0.12507E-05  6624   0.622E-03    0.620E-02
DAV:  11    -0.128034633042E+04   -0.60191E-05   -0.36970E-05  6656   0.102E-02    0.185E-02
DAV:  12    -0.128034633178E+04   -0.13627E-05   -0.55121E-06  7104   0.300E-03    0.123E-02
DAV:  13    -0.128034633210E+04   -0.32023E-06   -0.88180E-07  6464   0.156E-03    0.562E-03
DAV:  14    -0.128034633216E+04   -0.54832E-07   -0.49604E-07  7488   0.980E-04    0.242E-03
DAV:  15    -0.128034633212E+04    0.33891E-07   -0.33898E-08  3872   0.322E-04    0.910E-04
DAV:  16    -0.128034633212E+04    0.33324E-08   -0.34717E-08  4224   0.254E-04
   1 F= -.12989895E+04 E0= -.12989895E+04  d E =-.129899E+04  mag=    -0.0000
       N       E                     dE             d eps       ncg     rms          rms(c)
DAV:   1    -0.128034531278E+04    0.10193E-02   -0.57953E-01  5120   0.883E-01    0.134E-01
DAV:   2    -0.128034559613E+04   -0.28334E-03   -0.48321E-03  5536   0.843E-02    0.981E-02
DAV:   3    -0.128034552253E+04    0.73595E-04   -0.58010E-04  6304   0.450E-02    0.358E-02
DAV:   4    -0.128034552906E+04   -0.65239E-05   -0.11932E-04  5952   0.156E-02    0.167E-02
DAV:   5    -0.128034552538E+04    0.36795E-05   -0.38199E-05  5792   0.956E-03    0.730E-03
DAV:   6    -0.128034552471E+04    0.67041E-06   -0.48107E-06  6336   0.344E-03    0.398E-03
DAV:   7    -0.128034552486E+04   -0.14872E-06   -0.32275E-06  6368   0.262E-03    0.217E-03
DAV:   8    -0.128034552494E+04   -0.86715E-07   -0.46081E-07  5920   0.111E-03    0.128E-03
DAV:   9    -0.128034552531E+04   -0.36598E-06   -0.27136E-07  5344   0.731E-04    0.664E-04
DAV:  10    -0.128034552567E+04   -0.35732E-06   -0.86590E-08  5504   0.527E-04    0.630E-04
DAV:  11    -0.128034552608E+04   -0.41528E-06   -0.72492E-08  5248   0.437E-04    0.263E-04
DAV:  12    -0.128034552655E+04   -0.47330E-06   -0.39123E-08  4512   0.264E-04    0.213E-04
DAV:  13    -0.128034552681E+04   -0.25515E-06   -0.83691E-09  3488   0.120E-04    0.188E-04
DAV:  14    -0.128034552712E+04   -0.31509E-06   -0.17725E-08  3904   0.109E-04    0.855E-05
DAV:  15    -0.128034552731E+04   -0.18360E-06   -0.58063E-09  3296   0.670E-05    0.638E-05
DAV:  16    -0.128034552743E+04   -0.11844E-06   -0.36491E-09  3264   0.555E-05    0.408E-05
DAV:  17    -0.128034552752E+04   -0.97789E-07   -0.41732E-09  3296   0.604E-05    0.415E-05
DAV:  18    -0.128034552756E+04   -0.36365E-07   -0.15492E-09  3264   0.368E-05    0.345E-05
DAV:  19    -0.128034552759E+04   -0.29482E-07   -0.11164E-09  3200   0.366E-05    0.951E-06
DAV:  20    -0.128034552761E+04   -0.16371E-07   -0.53918E-10  3264   0.243E-05    0.138E-05
DAV:  21    -0.128034552761E+04   -0.68976E-08   -0.15756E-10  3136   0.158E-05
   2 F= -.12989887E+04 E0= -.12989887E+04  d E =0.769320E-03  mag=    -0.0000
       N       E                     dE             d eps       ncg     rms          rms(c)
DAV:   1    -0.128034524168E+04    0.28593E-03   -0.11577E+00  5120   0.124E+00    0.146E-01
DAV:   2    -0.128034596026E+04   -0.71857E-03   -0.98350E-03  5504   0.111E-01    0.976E-02
DAV:   3    -0.128034585532E+04    0.10494E-03   -0.81536E-04  6528   0.412E-02    0.470E-02
DAV:   4    -0.128034584664E+04    0.86714E-05   -0.19236E-04  5760   0.207E-02    0.176E-02
DAV:   5    -0.128034584306E+04    0.35888E-05   -0.52698E-05  5664   0.113E-02    0.874E-03
DAV:   6    -0.128034584306E+04   -0.63446E-08   -0.79864E-06  5824   0.327E-03    0.496E-03
DAV:   7    -0.128034584303E+04    0.30210E-07   -0.30788E-06  6080   0.267E-03    0.254E-03
DAV:   8    -0.128034584337E+04   -0.33596E-06   -0.49054E-07  5824   0.109E-03    0.155E-03
DAV:   9    -0.128034584390E+04   -0.53206E-06   -0.22430E-07  6272   0.670E-04    0.611E-04
DAV:  10    -0.128034584451E+04   -0.61067E-06   -0.70075E-08  4960   0.366E-04    0.444E-04
DAV:  11    -0.128034584515E+04   -0.63561E-06   -0.37773E-08  4288   0.301E-04    0.286E-04
DAV:  12    -0.128034584566E+04   -0.51231E-06   -0.37136E-08  4416   0.230E-04    0.156E-04
DAV:  13    -0.128034584605E+04   -0.39325E-06   -0.13787E-08  3776   0.115E-04    0.105E-04
DAV:  14    -0.128034584633E+04   -0.27908E-06   -0.98136E-09  3616   0.807E-05    0.628E-05
DAV:  15    -0.128034584658E+04   -0.25067E-06   -0.11048E-08  3616   0.776E-05    0.511E-05
DAV:  16    -0.128034584666E+04   -0.83644E-07   -0.21415E-09  3264   0.453E-05    0.353E-05
DAV:  17    -0.128034584672E+04   -0.55647E-07   -0.19025E-09  3232   0.477E-05    0.258E-05
DAV:  18    -0.128034584676E+04   -0.39028E-07   -0.15677E-09  3200   0.413E-05    0.275E-05
DAV:  19    -0.128034584677E+04   -0.13431E-07   -0.73602E-10  3264   0.315E-05    0.180E-05
DAV:  20    -0.128034584678E+04   -0.74506E-08   -0.37964E-10  3072   0.277E-05
   3 F= -.12989891E+04 E0= -.12989891E+04  d E =-.333837E-03  mag=     0.0000
       N       E                     dE             d eps       ncg     rms          rms(c)
DAV:   1    -0.128034573729E+04    0.10948E-03   -0.11503E+00  5120   0.123E+00    0.125E-01
DAV:   2    -0.128034621017E+04   -0.47288E-03   -0.88268E-03  5728   0.112E-01    0.872E-02
DAV:   3    -0.128034608174E+04    0.12843E-03   -0.88744E-04  6624   0.433E-02    0.429E-02
DAV:   4    -0.128034606652E+04    0.15226E-04   -0.17554E-04  5888   0.194E-02    0.172E-02
DAV:   5    -0.128034606487E+04    0.16468E-05   -0.43282E-05  5568   0.106E-02    0.837E-03
DAV:   6    -0.128034606518E+04   -0.30805E-06   -0.61249E-06  5824   0.332E-03    0.446E-03
DAV:   7    -0.128034606665E+04   -0.14691E-05   -0.31468E-06  5984   0.280E-03    0.263E-03
DAV:   8    -0.128034606783E+04   -0.11818E-05   -0.66622E-07  6464   0.123E-03    0.140E-03
DAV:   9    -0.128034607006E+04   -0.22272E-05   -0.32765E-07  5472   0.883E-04    0.739E-04
DAV:  10    -0.128034607191E+04   -0.18598E-05   -0.15965E-07  5600   0.554E-04    0.623E-04
DAV:  11    -0.128034607341E+04   -0.14953E-05   -0.80051E-08  5120   0.390E-04    0.276E-04
DAV:  12    -0.128034607522E+04   -0.18135E-05   -0.10593E-07  4544   0.359E-04    0.242E-04
DAV:  13    -0.128034607614E+04   -0.91479E-06   -0.44926E-08  4640   0.191E-04    0.176E-04
DAV:  14    -0.128034607674E+04   -0.60345E-06   -0.20184E-08  4064   0.114E-04    0.930E-05
DAV:  15    -0.128034607724E+04   -0.49449E-06   -0.19387E-08  4032   0.885E-05    0.661E-05
DAV:  16    -0.128034607747E+04   -0.23334E-06   -0.51881E-09  3360   0.713E-05    0.364E-05
DAV:  17    -0.128034607762E+04   -0.14938E-06   -0.65941E-09  3584   0.665E-05    0.425E-05
DAV:  18    -0.128034607767E+04   -0.50524E-07   -0.11292E-09  3264   0.508E-05    0.264E-05
DAV:  19    -0.128034607771E+04   -0.37326E-07   -0.10946E-09  3200   0.488E-05    0.235E-05
DAV:  20    -0.128034607773E+04   -0.21158E-07   -0.51725E-10  3264   0.380E-05    0.236E-05
DAV:  21    -0.128034607774E+04   -0.11569E-07   -0.18051E-10  3200   0.212E-05    0.999E-06
DAV:  22    -0.128034607775E+04   -0.56898E-08    0.49052E-11  3136   0.163E-05
   4 F= -.12989892E+04 E0= -.12989892E+04  d E =-.888911E-04  mag=     0.0000
       N       E                     dE             d eps       ncg     rms          rms(c)
DAV:   1    -0.128034497944E+04    0.10983E-02   -0.11515E+00  5120   0.124E+00    0.166E-01
DAV:   2    -0.128034588380E+04   -0.90436E-03   -0.12329E-02  5632   0.128E-01    0.119E-01
DAV:   3    -0.128034571857E+04    0.16523E-03   -0.92080E-04  6528   0.454E-02    0.681E-02
DAV:   4    -0.128034568316E+04    0.35410E-04   -0.41535E-04  6112   0.345E-02    0.222E-02
DAV:   5    -0.128034567751E+04    0.56577E-05   -0.10826E-04  6048   0.159E-02    0.141E-02
DAV:   6    -0.128034567662E+04    0.88627E-06   -0.30430E-05  6176   0.714E-03    0.855E-03
DAV:   7    -0.128034567621E+04    0.40709E-06   -0.66569E-06  6912   0.435E-03    0.383E-03
DAV:   8    -0.128034567721E+04   -0.99951E-06   -0.28914E-06  5984   0.270E-03    0.298E-03
DAV:   9    -0.128034567849E+04   -0.12751E-05   -0.86047E-07  6592   0.162E-03    0.143E-03
DAV:  10    -0.128034568099E+04   -0.25069E-05   -0.75201E-07  5472   0.128E-03    0.137E-03
DAV:  11    -0.128034568327E+04   -0.22732E-05   -0.20302E-07  5792   0.801E-04    0.104E-03
DAV:  12    -0.128034568576E+04   -0.24913E-05   -0.27703E-07  5024   0.713E-04    0.314E-04
DAV:  13    -0.128034568773E+04   -0.19674E-05   -0.10473E-07  4896   0.326E-04    0.272E-04
DAV:  14    -0.128034568914E+04   -0.14189E-05   -0.45450E-08  4016   0.153E-04    0.233E-04
DAV:  15    -0.128034569056E+04   -0.14168E-05   -0.58832E-08  4032   0.185E-04    0.114E-04
DAV:  16    -0.128034569110E+04   -0.53644E-06   -0.16858E-08  3840   0.121E-04    0.841E-05
DAV:  17    -0.128034569143E+04   -0.32979E-06   -0.60680E-09  3360   0.751E-05    0.742E-05
DAV:  18    -0.128034569158E+04   -0.15725E-06   -0.30812E-09  3264   0.554E-05    0.631E-05
DAV:  19    -0.128034569165E+04   -0.68670E-07   -0.18905E-09  3264   0.611E-05    0.275E-05
DAV:  20    -0.128034569169E+04   -0.33237E-07   -0.13380E-09  3232   0.508E-05    0.316E-05
DAV:  21    -0.128034569170E+04   -0.15367E-07   -0.42664E-10  3264   0.305E-05    0.273E-05
DAV:  22    -0.128034569171E+04   -0.12718E-07   -0.11597E-10  3200   0.262E-05    0.162E-05
DAV:  23    -0.128034569172E+04   -0.24011E-08    0.90268E-11  3200   0.169E-05
   5 F= -.12989889E+04 E0= -.12989889E+04  d E =0.216306E-03  mag=    -0.0000
       N       E                     dE             d eps       ncg     rms          rms(c)
DAV:   1    -0.128034541288E+04    0.27883E-03   -0.11564E+00  5120   0.111E+00    0.942E-02
DAV:   2    -0.128034590224E+04   -0.48935E-03   -0.75557E-03  5632   0.896E-02    0.590E-02
DAV:   3    -0.128034580081E+04    0.10143E-03   -0.60825E-04  6016   0.295E-02    0.240E-02
DAV:   4    -0.128034579150E+04    0.93090E-05   -0.10643E-04  6176   0.117E-02    0.129E-02
DAV:   5    -0.128034578983E+04    0.16696E-05   -0.10916E-05  5856   0.502E-03    0.593E-03
DAV:   6    -0.128034578922E+04    0.60844E-06   -0.25205E-06  5888   0.228E-03    0.214E-03
DAV:   7    -0.128034579004E+04   -0.81476E-06   -0.92885E-07  6912   0.131E-03    0.134E-03
DAV:   8    -0.128034579080E+04   -0.76556E-06   -0.18955E-07  5696   0.593E-04    0.832E-04
DAV:   9    -0.128034579250E+04   -0.17034E-05   -0.16414E-07  4992   0.475E-04    0.485E-04
DAV:  10    -0.128034579393E+04   -0.14211E-05   -0.96126E-08  4608   0.347E-04    0.282E-04
DAV:  11    -0.128034579520E+04   -0.12734E-05   -0.61248E-08  4320   0.230E-04    0.198E-04
DAV:  12    -0.128034579638E+04   -0.11810E-05   -0.61561E-08  4256   0.161E-04    0.159E-04
DAV:  13    -0.128034579711E+04   -0.72905E-06   -0.33176E-08  3968   0.133E-04    0.860E-05
DAV:  14    -0.128034579760E+04   -0.49103E-06   -0.19409E-08  3712   0.956E-05    0.825E-05
DAV:  15    -0.128034579779E+04   -0.18798E-06   -0.45676E-09  3456   0.631E-05    0.492E-05
DAV:  16    -0.128034579797E+04   -0.17924E-06   -0.64089E-09  3456   0.777E-05    0.591E-05
DAV:  17    -0.128034579804E+04   -0.68350E-07   -0.15902E-09  3264   0.532E-05    0.450E-05
DAV:  18    -0.128034579807E+04   -0.37035E-07   -0.10406E-09  3264   0.399E-05    0.145E-05
DAV:  19    -0.128034579812E+04   -0.42113E-07   -0.72316E-10  3200   0.343E-05    0.120E-05
DAV:  20    -0.128034579814E+04   -0.23574E-07   -0.41889E-10  3232   0.225E-05    0.178E-05
DAV:  21    -0.128034579814E+04   -0.60536E-08    0.74474E-12  3264   0.162E-05
   6 F= -.12989889E+04 E0= -.12989889E+04  d E =0.544758E-04  mag=     0.0000
       N       E                     dE             d eps       ncg     rms          rms(c)
DAV:   1    -0.128034524935E+04    0.54879E-03   -0.11602E+00  5120   0.110E+00    0.149E-01
DAV:   2    -0.128034580865E+04   -0.55930E-03   -0.93837E-03  5632   0.105E-01    0.107E-01
DAV:   3    -0.128034565392E+04    0.15473E-03   -0.11793E-03  6336   0.543E-02    0.399E-02
DAV:   4    -0.128034564723E+04    0.66837E-05   -0.21088E-04  6336   0.187E-02    0.212E-02
DAV:   5    -0.128034563936E+04    0.78728E-05   -0.37104E-05  6208   0.944E-03    0.101E-02
DAV:   6    -0.128034563815E+04    0.12110E-05   -0.68361E-06  6752   0.419E-03    0.466E-03
DAV:   7    -0.128034564066E+04   -0.25094E-05   -0.23355E-06  6208   0.234E-03    0.222E-03
DAV:   8    -0.128034564450E+04   -0.38454E-05   -0.74721E-07  6880   0.172E-03    0.148E-03
DAV:   9    -0.128034565081E+04   -0.63108E-05   -0.74454E-07  5888   0.157E-03    0.944E-04
DAV:  10    -0.128034565704E+04   -0.62262E-05   -0.60206E-07  6080   0.104E-03    0.734E-04
DAV:  11    -0.128034566238E+04   -0.53447E-05   -0.48626E-07  5664   0.720E-04    0.490E-04
DAV:  12    -0.128034566536E+04   -0.29747E-05   -0.16350E-07  5536   0.358E-04    0.390E-04
DAV:  13    -0.128034566733E+04   -0.19662E-05   -0.72988E-08  4640   0.211E-04    0.217E-04
DAV:  14    -0.128034566941E+04   -0.20886E-05   -0.11201E-07  4640   0.241E-04    0.160E-04
DAV:  15    -0.128034567007E+04   -0.66080E-06   -0.16216E-08  3808   0.101E-04    0.130E-04
DAV:  16    -0.128034567064E+04   -0.56463E-06   -0.16288E-08  3776   0.105E-04    0.593E-05
DAV:  17    -0.128034567089E+04   -0.25138E-06   -0.35581E-09  3392   0.592E-05    0.482E-05
DAV:  18    -0.128034567110E+04   -0.20945E-06   -0.48289E-09  3392   0.570E-05    0.274E-05
DAV:  19    -0.128034567116E+04   -0.64698E-07   -0.91972E-10  3328   0.466E-05    0.185E-05
DAV:  20    -0.128034567122E+04   -0.59168E-07   -0.68529E-10  3200   0.347E-05    0.128E-05
DAV:  21    -0.128034567125E+04   -0.29861E-07   -0.22432E-10  3200   0.266E-05    0.112E-05
DAV:  22    -0.128034567127E+04   -0.11612E-07   -0.25250E-11  3200   0.179E-05    0.710E-06
DAV:  23    -0.128034567127E+04   -0.53114E-08    0.11001E-10  3200   0.122E-05
   7 F= -.12989888E+04 E0= -.12989888E+04  d E =0.105992E-03  mag=     0.0000
       N       E                     dE             d eps       ncg     rms          rms(c)
DAV:   1    -0.128034499565E+04    0.67561E-03   -0.11539E+00  5120   0.112E+00    0.177E-01
DAV:   2    -0.128034598042E+04   -0.98476E-03   -0.12840E-02  5664   0.114E-01    0.137E-01
DAV:   3    -0.128034577820E+04    0.20221E-03   -0.12070E-03  6176   0.543E-02    0.692E-02
DAV:   4    -0.128034575352E+04    0.24678E-04   -0.37313E-04  6048   0.307E-02    0.229E-02
DAV:   5    -0.128034574444E+04    0.90799E-05   -0.12389E-04  5760   0.199E-02    0.114E-02
DAV:   6    -0.128034574171E+04    0.27356E-05   -0.22596E-05  5504   0.607E-03    0.655E-03
DAV:   7    -0.128034574357E+04   -0.18650E-05   -0.55972E-06  6240   0.371E-03    0.363E-03
DAV:   8    -0.128034574572E+04   -0.21447E-05   -0.27061E-06  6144   0.304E-03    0.303E-03
DAV:   9    -0.128034574802E+04   -0.23038E-05   -0.13788E-06  6656   0.207E-03    0.139E-03
DAV:  10    -0.128034575232E+04   -0.42947E-05   -0.82129E-07  5568   0.134E-03    0.172E-03
DAV:  11    -0.128034575765E+04   -0.53358E-05   -0.64396E-07  6112   0.129E-03    0.753E-04
DAV:  12    -0.128034576346E+04   -0.58047E-05   -0.52463E-07  5376   0.782E-04    0.740E-04
DAV:  13    -0.128034576583E+04   -0.23739E-05   -0.12301E-07  5856   0.383E-04    0.376E-04
DAV:  14    -0.128034576768E+04   -0.18531E-05   -0.48926E-08  4352   0.219E-04    0.195E-04
DAV:  15    -0.128034577018E+04   -0.24997E-05   -0.93737E-08  4064   0.184E-04    0.122E-04
DAV:  16    -0.128034577107E+04   -0.88672E-06   -0.23876E-08  3872   0.109E-04    0.886E-05
DAV:  17    -0.128034577159E+04   -0.52206E-06   -0.62621E-09  3424   0.683E-05    0.577E-05
DAV:  18    -0.128034577195E+04   -0.36097E-06   -0.73475E-09  3488   0.690E-05    0.282E-05
DAV:  19    -0.128034577205E+04   -0.92579E-07   -0.13276E-09  3264   0.447E-05    0.242E-05
DAV:  20    -0.128034577210E+04   -0.51004E-07   -0.75071E-10  3200   0.317E-05    0.188E-05
DAV:  21    -0.128034577213E+04   -0.28900E-07   -0.37279E-10  3200   0.291E-05    0.117E-05
DAV:  22    -0.128034577214E+04   -0.12675E-07   -0.24036E-10  3200   0.254E-05    0.873E-06
DAV:  23    -0.128034577214E+04   -0.31869E-08    0.48213E-11  3200   0.170E-05
   8 F= -.12989889E+04 E0= -.12989889E+04  d E =-.165449E-03  mag=    -0.0000
       N       E                     dE             d eps       ncg     rms          rms(c)
DAV:   1    -0.128034482244E+04    0.94970E-03   -0.11659E+00  5120   0.112E+00    0.331E-01
DAV:   2    -0.128034538889E+04   -0.56645E-03   -0.10556E-02  5856   0.122E-01    0.275E-01
DAV:   3    -0.128034525815E+04    0.13074E-03   -0.27795E-03  6048   0.108E-01    0.496E-02
DAV:   4    -0.128034520960E+04    0.48557E-04   -0.73620E-04  5664   0.454E-02    0.300E-02
DAV:   5    -0.128034520447E+04    0.51219E-05   -0.16636E-04  6240   0.172E-02    0.162E-02
DAV:   6    -0.128034520306E+04    0.14102E-05   -0.25591E-05  6784   0.773E-03    0.656E-03
DAV:   7    -0.128034520343E+04   -0.36940E-06   -0.30444E-06  6336   0.237E-03    0.359E-03
DAV:   8    -0.128034520548E+04   -0.20459E-05   -0.82778E-07  6848   0.142E-03    0.177E-03
DAV:   9    -0.128034520755E+04   -0.20662E-05   -0.31506E-07  5792   0.848E-04    0.986E-04
DAV:  10    -0.128034521057E+04   -0.30258E-05   -0.20638E-07  5344   0.503E-04    0.559E-04
DAV:  11    -0.128034521393E+04   -0.33602E-05   -0.23967E-07  4672   0.684E-04    0.410E-04
DAV:  12    -0.128034521612E+04   -0.21864E-05   -0.14126E-07  5056   0.363E-04    0.368E-04
DAV:  13    -0.128034521737E+04   -0.12490E-05   -0.39984E-08  4288   0.211E-04    0.230E-04
DAV:  14    -0.128034521849E+04   -0.11177E-05   -0.41875E-08  4384   0.175E-04    0.159E-04
DAV:  15    -0.128034521899E+04   -0.50329E-06   -0.10250E-08  3584   0.999E-05    0.852E-05
DAV:  16    -0.128034521942E+04   -0.42943E-06   -0.10936E-08  3680   0.867E-05    0.499E-05
DAV:  17    -0.128034521964E+04   -0.22422E-06   -0.45960E-09  3296   0.855E-05    0.336E-05
DAV:  18    -0.128034521975E+04   -0.11214E-06   -0.31116E-09  3200   0.776E-05    0.226E-05
DAV:  19    -0.128034521981E+04   -0.56505E-07   -0.21721E-09  3328   0.568E-05    0.241E-05
DAV:  20    -0.128034521985E+04   -0.39872E-07   -0.74700E-10  3200   0.350E-05    0.147E-05
DAV:  21    -0.128034521987E+04   -0.17360E-07   -0.29377E-10  3264   0.253E-05    0.125E-05
DAV:  22    -0.128034521987E+04   -0.65193E-08   -0.30406E-11  3200   0.160E-05
   9 F= -.12989885E+04 E0= -.12989885E+04  d E =0.483851E-03  mag=     0.0000
       N       E                     dE             d eps       ncg     rms          rms(c)
DAV:   1    -0.128034499697E+04    0.22290E-03   -0.11430E+00  5120   0.112E+00    0.240E-01
DAV:   2    -0.128034591824E+04   -0.92127E-03   -0.11781E-02  5792   0.101E-01    0.179E-01
DAV:   3    -0.128034573778E+04    0.18045E-03   -0.12978E-03  6016   0.527E-02    0.731E-02
DAV:   4    -0.128034572655E+04    0.11236E-04   -0.29321E-04  5920   0.191E-02    0.299E-02
DAV:   5    -0.128034572233E+04    0.42185E-05   -0.99688E-05  5888   0.163E-02    0.122E-02
DAV:   6    -0.128034572497E+04   -0.26371E-05   -0.17105E-05  5824   0.561E-03    0.533E-03
DAV:   7    -0.128034573089E+04   -0.59194E-05   -0.47369E-06  6912   0.307E-03    0.254E-03
DAV:   8    -0.128034573514E+04   -0.42514E-05   -0.73097E-07  6368   0.126E-03    0.160E-03
DAV:   9    -0.128034574364E+04   -0.85064E-05   -0.10412E-06  5376   0.130E-03    0.142E-03
DAV:  10    -0.128034574961E+04   -0.59691E-05   -0.44441E-07  6272   0.714E-04    0.109E-03
DAV:  11    -0.128034575586E+04   -0.62484E-05   -0.72735E-07  5312   0.881E-04    0.658E-04
DAV:  12    -0.128034576022E+04   -0.43542E-05   -0.29672E-07  5120   0.519E-04    0.702E-04
DAV:  13    -0.128034576198E+04   -0.17653E-05   -0.95484E-08  5120   0.302E-04    0.311E-04
DAV:  14    -0.128034576393E+04   -0.19517E-05   -0.94836E-08  4672   0.239E-04    0.204E-04
DAV:  15    -0.128034576481E+04   -0.87552E-06   -0.23580E-08  4192   0.126E-04    0.112E-04
DAV:  16    -0.128034576561E+04   -0.80471E-06   -0.27270E-08  4288   0.121E-04    0.775E-05
DAV:  17    -0.128034576597E+04   -0.35918E-06   -0.66331E-09  3488   0.743E-05    0.743E-05
DAV:  18    -0.128034576614E+04   -0.16396E-06   -0.30233E-09  3264   0.663E-05    0.374E-05
DAV:  19    -0.128034576621E+04   -0.77227E-07   -0.19583E-09  3200   0.592E-05    0.310E-05
DAV:  20    -0.128034576628E+04   -0.61948E-07   -0.11367E-09  3200   0.447E-05    0.362E-05
DAV:  21    -0.128034576631E+04   -0.33717E-07   -0.42325E-10  3200   0.321E-05    0.260E-05
DAV:  22    -0.128034576633E+04   -0.20213E-07   -0.30068E-10  3200   0.326E-05    0.122E-05
DAV:  23    -0.128034576633E+04   -0.58790E-08   -0.29049E-12  3264   0.216E-05
  10 F= -.12989888E+04 E0= -.12989888E+04  d E =-.332332E-03  mag=     0.0000
       N       E                     dE             d eps       ncg     rms          rms(c)
DAV:   1    -0.128034611569E+04   -0.34936E-03   -0.60852E-01  5120   0.810E-01    0.134E-01
DAV:   2    -0.128034651702E+04   -0.40133E-03   -0.67055E-03  5856   0.801E-02    0.922E-02
DAV:   3    -0.128034640241E+04    0.11460E-03   -0.64611E-04  6560   0.354E-02    0.490E-02
DAV:   4    -0.128034638479E+04    0.17624E-04   -0.18434E-04  5760   0.190E-02    0.178E-02
DAV:   5    -0.128034638096E+04    0.38326E-05   -0.56885E-05  5696   0.128E-02    0.836E-03
DAV:   6    -0.128034638077E+04    0.19073E-06   -0.91066E-06  5728   0.397E-03    0.474E-03
DAV:   7    -0.128034638175E+04   -0.98332E-06   -0.30349E-06  6544   0.270E-03    0.290E-03
DAV:   8    -0.128034638300E+04   -0.12559E-05   -0.55269E-07  6240   0.134E-03    0.176E-03
DAV:   9    -0.128034638567E+04   -0.26619E-05   -0.49810E-07  5888   0.147E-03    0.754E-04
DAV:  10    -0.128034638860E+04   -0.29317E-05   -0.34623E-07  5536   0.906E-04    0.888E-04
DAV:  11    -0.128034639128E+04   -0.26802E-05   -0.22880E-07  5680   0.566E-04    0.416E-04
DAV:  12    -0.128034639362E+04   -0.23433E-05   -0.12614E-07  4576   0.393E-04    0.322E-04
DAV:  13    -0.128034639489E+04   -0.12727E-05   -0.51956E-08  4608   0.254E-04    0.194E-04
DAV:  14    -0.128034639612E+04   -0.12292E-05   -0.31711E-08  3872   0.161E-04    0.119E-04
DAV:  15    -0.128034639713E+04   -0.10015E-05   -0.29647E-08  4224   0.144E-04    0.106E-04
DAV:  16    -0.128034639755E+04   -0.42022E-06   -0.77094E-09  3424   0.932E-05    0.527E-05
DAV:  17    -0.128034639777E+04   -0.22879E-06   -0.41354E-09  3264   0.645E-05    0.393E-05
DAV:  18    -0.128034639792E+04   -0.14453E-06   -0.29517E-09  3200   0.625E-05    0.300E-05
DAV:  19    -0.128034639797E+04   -0.48763E-07   -0.17539E-09  3264   0.570E-05    0.151E-05
DAV:  20    -0.128034639800E+04   -0.31083E-07   -0.10419E-09  3200   0.439E-05    0.183E-05
DAV:  21    -0.128034639801E+04   -0.10972E-07   -0.30589E-10  3264   0.245E-05    0.194E-05
DAV:  22    -0.128034639801E+04   -0.52678E-08    0.27350E-12  3200   0.184E-05
  11 F= -.12989895E+04 E0= -.12989895E+04  d E =-.693468E-03  mag=    -0.0000
       N       E                     dE             d eps       ncg     rms          rms(c)
DAV:   1    -0.128034598329E+04    0.41472E-03   -0.70843E-02  5248   0.176E-01    0.656E-02
DAV:   2    -0.128034597597E+04    0.73187E-05   -0.53452E-04  5600   0.142E-02    0.392E-02
DAV:   3    -0.128034594257E+04    0.33393E-04   -0.81942E-05  5632   0.841E-03    0.440E-03
DAV:   4    -0.128034594244E+04    0.13266E-06   -0.52394E-06  6176   0.277E-03    0.279E-03
DAV:   5    -0.128034594247E+04   -0.29744E-07   -0.84000E-07  6400   0.130E-03    0.148E-03
DAV:   6    -0.128034594275E+04   -0.27729E-06   -0.16208E-07  5376   0.651E-04    0.781E-04
DAV:   7    -0.128034594327E+04   -0.52201E-06   -0.91679E-08  5664   0.358E-04    0.445E-04
DAV:   8    -0.128034594404E+04   -0.76822E-06   -0.46372E-08  4288   0.209E-04    0.247E-04
DAV:   9    -0.128034594476E+04   -0.71782E-06   -0.42071E-08  4320   0.193E-04    0.165E-04
DAV:  10    -0.128034594559E+04   -0.83442E-06   -0.46731E-08  3968   0.152E-04    0.135E-04
DAV:  11    -0.128034594600E+04   -0.40673E-06   -0.15445E-08  3712   0.948E-05    0.703E-05
DAV:  12    -0.128034594637E+04   -0.36921E-06   -0.18023E-08  3840   0.872E-05    0.734E-05
DAV:  13    -0.128034594648E+04   -0.11688E-06   -0.24891E-09  3328   0.570E-05    0.453E-05
DAV:  14    -0.128034594666E+04   -0.17762E-06   -0.69175E-09  3440   0.724E-05    0.523E-05
DAV:  15    -0.128034594671E+04   -0.53100E-07   -0.14076E-09  3264   0.544E-05    0.382E-05
DAV:  16    -0.128034594674E+04   -0.30894E-07   -0.10207E-09  3200   0.402E-05    0.135E-05
DAV:  17    -0.128034594677E+04   -0.26062E-07   -0.52269E-10  3232   0.304E-05    0.142E-05
DAV:  18    -0.128034594679E+04   -0.19951E-07   -0.24013E-10  3200   0.193E-05    0.115E-05
DAV:  19    -0.128034594680E+04   -0.72032E-08    0.29297E-11  3232   0.162E-05
  12 F= -.12989891E+04 E0= -.12989891E+04  d E =0.351424E-03  mag=     0.0000
       N       E                     dE             d eps       ncg     rms          rms(c)
DAV:   1    -0.128034609477E+04   -0.14798E-03   -0.72644E-02  5312   0.177E-01    0.853E-02
DAV:   2    -0.128034601205E+04    0.82720E-04   -0.84070E-04  5632   0.253E-02    0.481E-02
DAV:   3    -0.128034595863E+04    0.53415E-04   -0.15282E-04  5856   0.112E-02    0.118E-02
DAV:   4    -0.128034595475E+04    0.38828E-05   -0.11748E-05  6592   0.381E-03    0.459E-03
DAV:   5    -0.128034595429E+04    0.45777E-06   -0.15889E-06  6496   0.180E-03    0.222E-03
DAV:   6    -0.128034595518E+04   -0.88691E-06   -0.45149E-07  6368   0.879E-04    0.125E-03
DAV:   7    -0.128034595654E+04   -0.13595E-05   -0.20541E-07  5952   0.619E-04    0.728E-04
DAV:   8    -0.128034595831E+04   -0.17696E-05   -0.10056E-07  4672   0.402E-04    0.415E-04
DAV:   9    -0.128034596055E+04   -0.22472E-05   -0.16350E-07  4912   0.413E-04    0.283E-04
DAV:  10    -0.128034596234E+04   -0.17880E-05   -0.10727E-07  4496   0.279E-04    0.198E-04
DAV:  11    -0.128034596383E+04   -0.14855E-05   -0.93981E-08  4368   0.186E-04    0.137E-04
DAV:  12    -0.128034596450E+04   -0.67677E-06   -0.29037E-08  4064   0.115E-04    0.874E-05
DAV:  13    -0.128034596492E+04   -0.41809E-06   -0.10235E-08  3680   0.862E-05    0.632E-05
DAV:  14    -0.128034596532E+04   -0.39917E-06   -0.14585E-08  3744   0.858E-05    0.646E-05
DAV:  15    -0.128034596546E+04   -0.13363E-06   -0.24779E-09  3328   0.560E-05    0.370E-05
DAV:  16    -0.128034596555E+04   -0.96596E-07   -0.20855E-09  3264   0.569E-05    0.248E-05
DAV:  17    -0.128034596561E+04   -0.61482E-07   -0.12809E-09  3264   0.430E-05    0.320E-05
DAV:  18    -0.128034596565E+04   -0.33004E-07   -0.41319E-10  3264   0.277E-05    0.204E-05
DAV:  19    -0.128034596567E+04   -0.26324E-07   -0.40184E-10  3200   0.320E-05    0.140E-05
DAV:  20    -0.128034596568E+04   -0.56752E-08   -0.18466E-11  3264   0.186E-05
  13 F= -.12989891E+04 E0= -.12989891E+04  d E =0.129427E-05  mag=     0.0000
       N       E                     dE             d eps       ncg     rms          rms(c)
DAV:   1    -0.128034629950E+04   -0.33383E-03   -0.49382E-02  5152   0.165E-01    0.433E-02
DAV:   2    -0.128034633016E+04   -0.30660E-04   -0.54054E-04  6112   0.170E-02    0.282E-02
DAV:   3    -0.128034632610E+04    0.40552E-05   -0.46624E-05  6336   0.907E-03    0.134E-02
DAV:   4    -0.128034632590E+04    0.20495E-06   -0.12847E-05  5696   0.487E-03    0.482E-03
DAV:   5    -0.128034632588E+04    0.14988E-07   -0.49429E-06  6688   0.278E-03    0.223E-03
DAV:   6    -0.128034632604E+04   -0.15818E-06   -0.67796E-07  6656   0.114E-03    0.104E-03
DAV:   7    -0.128034632627E+04   -0.22749E-06   -0.70806E-08  5584   0.382E-04    0.637E-04
DAV:   8    -0.128034632670E+04   -0.42726E-06   -0.66381E-08  5120   0.311E-04    0.338E-04
DAV:   9    -0.128034632706E+04   -0.36080E-06   -0.18015E-08  3968   0.161E-04    0.153E-04
DAV:  10    -0.128034632738E+04   -0.32653E-06   -0.14519E-08  3824   0.985E-05    0.125E-04
DAV:  11    -0.128034632766E+04   -0.28068E-06   -0.10491E-08  3680   0.839E-05    0.785E-05
DAV:  12    -0.128034632795E+04   -0.28285E-06   -0.16556E-08  3840   0.951E-05    0.674E-05
DAV:  13    -0.128034632807E+04   -0.11866E-06   -0.38024E-09  3360   0.508E-05    0.520E-05
DAV:  14    -0.128034632814E+04   -0.71697E-07   -0.17931E-09  3200   0.427E-05    0.207E-05
DAV:  15    -0.128034632821E+04   -0.70911E-07   -0.26020E-09  3264   0.459E-05    0.325E-05
DAV:  16    -0.128034632824E+04   -0.26776E-07   -0.10322E-09  3232   0.346E-05    0.297E-05
DAV:  17    -0.128034632825E+04   -0.17026E-07   -0.58470E-10  3200   0.270E-05    0.105E-05
DAV:  18    -0.128034632827E+04   -0.14887E-07   -0.42873E-10  3200   0.253E-05    0.194E-05
DAV:  19    -0.128034632827E+04   -0.31578E-08   -0.54869E-11  3104   0.163E-05
  14 F= -.12989896E+04 E0= -.12989896E+04  d E =-.431893E-03  mag=    -0.0000
       N       E                     dE             d eps       ncg     rms          rms(c)
DAV:   1    -0.128034583524E+04    0.49303E-03   -0.54175E-02  5248   0.135E-01    0.449E-02
DAV:   2    -0.128034586123E+04   -0.25988E-04   -0.46588E-04  5920   0.197E-02    0.279E-02
DAV:   3    -0.128034586114E+04    0.91459E-07   -0.32238E-05  6400   0.778E-03    0.143E-02
DAV:   4    -0.128034586134E+04   -0.20527E-06   -0.12575E-05  5664   0.434E-03    0.466E-03
DAV:   5    -0.128034586118E+04    0.16327E-06   -0.40918E-06  6624   0.252E-03    0.220E-03
DAV:   6    -0.128034586134E+04   -0.15451E-06   -0.51191E-07  6432   0.111E-03    0.120E-03
DAV:   7    -0.128034586168E+04   -0.34634E-06   -0.13741E-07  6048   0.534E-04    0.702E-04
DAV:   8    -0.128034586227E+04   -0.59108E-06   -0.60151E-08  4512   0.348E-04    0.346E-04
DAV:   9    -0.128034586297E+04   -0.69766E-06   -0.48068E-08  4064   0.268E-04    0.218E-04
DAV:  10    -0.128034586363E+04   -0.65658E-06   -0.33214E-08  3808   0.181E-04    0.155E-04
DAV:  11    -0.128034586433E+04   -0.70773E-06   -0.36300E-08  3904   0.142E-04    0.118E-04
DAV:  12    -0.128034586474E+04   -0.40914E-06   -0.18221E-08  3808   0.938E-05    0.653E-05
DAV:  13    -0.128034586503E+04   -0.28298E-06   -0.80597E-09  3456   0.643E-05    0.489E-05
DAV:  14    -0.128034586523E+04   -0.20395E-06   -0.52582E-09  3392   0.542E-05    0.352E-05
DAV:  15    -0.128034586533E+04   -0.10310E-06   -0.25899E-09  3264   0.509E-05    0.190E-05
DAV:  16    -0.128034586538E+04   -0.45358E-07   -0.17525E-09  3200   0.475E-05    0.189E-05
DAV:  17    -0.128034586539E+04   -0.12500E-07   -0.77475E-10  3264   0.349E-05    0.147E-05
DAV:  18    -0.128034586540E+04   -0.10798E-07   -0.35072E-10  3200   0.249E-05    0.838E-06
DAV:  19    -0.128034586541E+04   -0.39581E-08   -0.10911E-10  3200   0.166E-05
  15 F= -.12989891E+04 E0= -.12989891E+04  d E =0.503310E-03  mag=     0.0000
       N       E                     dE             d eps       ncg     rms          rms(c)
DAV:   1    -0.128034675408E+04   -0.88868E-03   -0.56191E-02  5120   0.145E-01    0.688E-02
DAV:   2    -0.128034673529E+04    0.18795E-04   -0.12532E-03  6240   0.356E-02    0.432E-02
DAV:   3    -0.128034671007E+04    0.25216E-04   -0.10587E-04  6656   0.133E-02    0.244E-02
DAV:   4    -0.128034668835E+04    0.21719E-04   -0.60017E-05  5632   0.874E-03    0.980E-03
DAV:   5    -0.128034668549E+04    0.28634E-05   -0.12058E-05  6784   0.462E-03    0.479E-03
DAV:   6    -0.128034668528E+04    0.20739E-06   -0.36429E-06  6080   0.242E-03    0.368E-03
DAV:   7    -0.128034668624E+04   -0.95602E-06   -0.96498E-07  6848   0.154E-03    0.169E-03
DAV:   8    -0.128034669007E+04   -0.38287E-05   -0.70548E-07  5536   0.120E-03    0.992E-04
DAV:   9    -0.128034669422E+04   -0.41578E-05   -0.31945E-07  5728   0.716E-04    0.694E-04
DAV:  10    -0.128034669790E+04   -0.36754E-05   -0.17100E-07  5088   0.379E-04    0.429E-04
DAV:  11    -0.128034670236E+04   -0.44656E-05   -0.21985E-07  4192   0.319E-04    0.276E-04
DAV:  12    -0.128034670510E+04   -0.27379E-05   -0.13432E-07  4224   0.242E-04    0.198E-04
DAV:  13    -0.128034670646E+04   -0.13543E-05   -0.35556E-08  3968   0.127E-04    0.111E-04
DAV:  14    -0.128034670768E+04   -0.12276E-05   -0.24630E-08  3728   0.112E-04    0.759E-05
DAV:  15    -0.128034670834E+04   -0.65241E-06   -0.13506E-08  3600   0.934E-05    0.566E-05
DAV:  16    -0.128034670856E+04   -0.22376E-06   -0.30898E-09  3296   0.605E-05    0.302E-05
DAV:  17    -0.128034670869E+04   -0.12903E-06   -0.23235E-09  3232   0.481E-05    0.235E-05
DAV:  18    -0.128034670873E+04   -0.44980E-07   -0.93581E-10  3264   0.361E-05    0.196E-05
DAV:  19    -0.128034670876E+04   -0.20766E-07   -0.38840E-10  3200   0.264E-05    0.999E-06
DAV:  20    -0.128034670877E+04   -0.15629E-07   -0.22084E-10  3200   0.237E-05    0.906E-06
DAV:  21    -0.128034670877E+04   -0.21973E-08    0.47852E-11  3216   0.156E-05
  16 F= -.12989894E+04 E0= -.12989894E+04  d E =-.383450E-03  mag=    -0.0000
