       N       E                     dE             d eps       ncg     rms          rms(c)
DAV:   1    -0.137102249510E+04   -0.13710E+04   -0.13399E+00  6304   0.980E-01    0.953E-01
DAV:   2    -0.137276815528E+04   -0.17457E+01   -0.11921E+00  6144   0.952E-01    0.411E-01
DAV:   3    -0.137277799524E+04   -0.98400E-02   -0.43798E-02  6848   0.230E-01    0.277E-01
DAV:   4    -0.137277804784E+04   -0.52599E-04   -0.21600E-03  5568   0.575E-02    0.224E-01
DAV:   5    -0.137277805655E+04   -0.87147E-05   -0.19794E-04  6592   0.181E-02    0.189E-01
DAV:   6    -0.137277806852E+04   -0.11966E-04   -0.22453E-05  6592   0.706E-03    0.163E-01
DAV:   7    -0.137277807570E+04   -0.71811E-05   -0.25057E-05  6656   0.849E-03    0.129E-01
DAV:   8    -0.137277808075E+04   -0.50480E-05   -0.17253E-05  6176   0.648E-03    0.106E-01
DAV:   9    -0.137277808468E+04   -0.39343E-05   -0.38806E-06  3968   0.318E-03    0.914E-02
DAV:  10    -0.137277809057E+04   -0.58921E-05   -0.28322E-05  6368   0.853E-03    0.519E-02
DAV:  11    -0.137277809457E+04   -0.40004E-05   -0.28494E-05  6784   0.855E-03    0.175E-02
DAV:  12    -0.137277809549E+04   -0.91626E-06   -0.25325E-06  3264   0.244E-03
   1 F= -.13920499E+04 E0= -.13920499E+04  d E =-.119354E-27  mag=     0.0000
