       N       E                     dE             d eps       ncg     rms          rms(c)
DAV:   1    -0.137750389083E+04   -0.13775E+04   -0.13591E+00  6272   0.986E-01    0.952E-01
DAV:   2    -0.137926427554E+04   -0.17604E+01   -0.12111E+00  6080   0.959E-01    0.413E-01
DAV:   3    -0.137927416196E+04   -0.98864E-02   -0.43298E-02  6656   0.232E-01    0.279E-01
DAV:   4    -0.137927420377E+04   -0.41804E-04   -0.21846E-03  5504   0.579E-02    0.225E-01
DAV:   5    -0.137927420661E+04   -0.28428E-05   -0.20320E-04  6912   0.183E-02    0.189E-01
DAV:   6    -0.137927421695E+04   -0.10341E-04   -0.25110E-05  6912   0.737E-03    0.162E-01
DAV:   7    -0.137927422169E+04   -0.47347E-05   -0.23612E-05  6848   0.800E-03    0.131E-01
DAV:   8    -0.137927422593E+04   -0.42451E-05   -0.18635E-05  6816   0.670E-03    0.107E-01
DAV:   9    -0.137927423022E+04   -0.42913E-05   -0.62215E-06  7168   0.372E-03    0.901E-02
DAV:  10    -0.137927423426E+04   -0.40382E-05   -0.10003E-05  6560   0.522E-03    0.656E-02
DAV:  11    -0.137927423840E+04   -0.41348E-05   -0.41435E-05  6432   0.104E-02    0.212E-02
DAV:  12    -0.137927423977E+04   -0.13766E-05   -0.67301E-06  6944   0.336E-03    0.137E-02
DAV:  13    -0.137927423999E+04   -0.21659E-06   -0.10190E-06  7040   0.159E-03    0.669E-03
DAV:  14    -0.137927423999E+04    0.48021E-09   -0.60659E-07  6880   0.112E-03    0.325E-03
DAV:  15    -0.137927423994E+04    0.51543E-07   -0.83063E-08  5472   0.417E-04    0.155E-03
DAV:  16    -0.137927423988E+04    0.54410E-07   -0.24050E-08  3104   0.302E-04    0.523E-04
DAV:  17    -0.137927423986E+04    0.18583E-07   -0.19766E-08  3136   0.181E-04    0.431E-04
DAV:  18    -0.137927423986E+04   -0.49477E-09   -0.54087E-09  2944   0.107E-04
   1 F= -.13987693E+04 E0= -.13987693E+04  d E =-.139877E+04  mag=    -0.0000
       N       E                     dE             d eps       ncg     rms          rms(c)
DAV:   1    -0.137927333476E+04    0.90510E-03   -0.58226E-01  5120   0.874E-01    0.120E-01
DAV:   2    -0.137927368297E+04   -0.34821E-03   -0.53062E-03  5536   0.807E-02    0.802E-02
DAV:   3    -0.137927362207E+04    0.60900E-04   -0.56911E-04  6176   0.369E-02    0.330E-02
DAV:   4    -0.137927362557E+04   -0.34986E-05   -0.11365E-04  6176   0.151E-02    0.154E-02
DAV:   5    -0.137927362303E+04    0.25381E-05   -0.25127E-05  6432   0.730E-03    0.730E-03
DAV:   6    -0.137927362254E+04    0.48935E-06   -0.35616E-06  5760   0.251E-03    0.381E-03
DAV:   7    -0.137927362244E+04    0.98298E-07   -0.21884E-06  6400   0.216E-03    0.150E-03
DAV:   8    -0.137927362248E+04   -0.44500E-07   -0.35301E-07  5792   0.102E-03    0.102E-03
DAV:   9    -0.137927362257E+04   -0.90615E-07   -0.12264E-07  4832   0.542E-04    0.462E-04
DAV:  10    -0.137927362269E+04   -0.11075E-06   -0.59618E-08  4832   0.465E-04    0.408E-04
DAV:  11    -0.137927362278E+04   -0.96188E-07   -0.38624E-08  4352   0.307E-04    0.228E-04
DAV:  12    -0.137927362288E+04   -0.96959E-07   -0.96440E-09  3232   0.182E-04    0.120E-04
DAV:  13    -0.137927362302E+04   -0.14035E-06   -0.16691E-08  3840   0.178E-04    0.163E-04
DAV:  14    -0.137927362309E+04   -0.69413E-07   -0.52632E-09  3200   0.108E-04    0.103E-04
DAV:  15    -0.137927362315E+04   -0.64945E-07   -0.49596E-09  3104   0.888E-05    0.499E-05
DAV:  16    -0.137927362321E+04   -0.58179E-07   -0.29935E-09  3072   0.580E-05    0.558E-05
DAV:  17    -0.137927362325E+04   -0.38388E-07   -0.19035E-09  3072   0.426E-05    0.412E-05
DAV:  18    -0.137927362328E+04   -0.29991E-07   -0.17538E-09  3072   0.493E-05    0.184E-05
DAV:  19    -0.137927362329E+04   -0.14246E-07   -0.69916E-10  3072   0.302E-05    0.198E-05
DAV:  20    -0.137927362330E+04   -0.10463E-07   -0.25354E-10  2944   0.222E-05    0.111E-05
DAV:  21    -0.137927362331E+04   -0.58644E-08   -0.78877E-11  3040   0.171E-05
   2 F= -.13987687E+04 E0= -.13987687E+04  d E =0.581297E-03  mag=     0.0000
       N       E                     dE             d eps       ncg     rms          rms(c)
DAV:   1    -0.137927310758E+04    0.51572E-03   -0.11607E+00  5120   0.122E+00    0.135E-01
DAV:   2    -0.137927393537E+04   -0.82779E-03   -0.10871E-02  5472   0.109E-01    0.841E-02
DAV:   3    -0.137927384330E+04    0.92075E-04   -0.81440E-04  6144   0.359E-02    0.443E-02
DAV:   4    -0.137927382446E+04    0.18839E-04   -0.23277E-04  5536   0.220E-02    0.161E-02
DAV:   5    -0.137927382306E+04    0.14043E-05   -0.53249E-05  5440   0.101E-02    0.104E-02
DAV:   6    -0.137927382341E+04   -0.35750E-06   -0.14063E-05  6976   0.419E-03    0.632E-03
DAV:   7    -0.137927382300E+04    0.41455E-06   -0.26238E-06  6624   0.235E-03    0.344E-03
DAV:   8    -0.137927382317E+04   -0.17468E-06   -0.14233E-06  6112   0.167E-03    0.183E-03
DAV:   9    -0.137927382325E+04   -0.71857E-07   -0.33021E-07  6048   0.835E-04    0.891E-04
DAV:  10    -0.137927382341E+04   -0.16602E-06   -0.89619E-08  4736   0.408E-04    0.309E-04
DAV:  11    -0.137927382360E+04   -0.19185E-06   -0.26288E-08  4160   0.255E-04    0.284E-04
DAV:  12    -0.137927382376E+04   -0.15512E-06   -0.17149E-08  3616   0.217E-04    0.132E-04
DAV:  13    -0.137927382389E+04   -0.13100E-06   -0.17788E-08  3840   0.171E-04    0.165E-04
DAV:  14    -0.137927382399E+04   -0.99288E-07   -0.49407E-09  3168   0.999E-05    0.844E-05
DAV:  15    -0.137927382407E+04   -0.77984E-07   -0.53023E-09  3136   0.815E-05    0.427E-05
DAV:  16    -0.137927382412E+04   -0.48967E-07   -0.22718E-09  3072   0.484E-05    0.344E-05
DAV:  17    -0.137927382414E+04   -0.28493E-07   -0.13258E-09  3072   0.330E-05    0.224E-05
DAV:  18    -0.137927382416E+04   -0.16138E-07   -0.73875E-10  3072   0.294E-05    0.101E-05
DAV:  19    -0.137927382417E+04   -0.86147E-08   -0.54471E-10  3072   0.259E-05
   3 F= -.13987690E+04 E0= -.13987690E+04  d E =-.313211E-03  mag=    -0.0000
       N       E                     dE             d eps       ncg     rms          rms(c)
DAV:   1    -0.137927306956E+04    0.75460E-03   -0.11561E+00  5120   0.123E+00    0.145E-01
DAV:   2    -0.137927373074E+04   -0.66118E-03   -0.10653E-02  5536   0.117E-01    0.103E-01
DAV:   3    -0.137927359641E+04    0.13433E-03   -0.11594E-03  6112   0.511E-02    0.481E-02
DAV:   4    -0.137927360072E+04   -0.43094E-05   -0.21693E-04  6144   0.208E-02    0.211E-02
DAV:   5    -0.137927359503E+04    0.56925E-05   -0.58773E-05  5504   0.134E-02    0.896E-03
DAV:   6    -0.137927359495E+04    0.84066E-07   -0.77905E-06  5600   0.406E-03    0.452E-03
DAV:   7    -0.137927359513E+04   -0.17867E-06   -0.46722E-06  5984   0.326E-03    0.305E-03
DAV:   8    -0.137927359520E+04   -0.69282E-07   -0.85592E-07  6208   0.145E-03    0.156E-03
DAV:   9    -0.137927359553E+04   -0.33063E-06   -0.44757E-07  5600   0.117E-03    0.761E-04
DAV:  10    -0.137927359592E+04   -0.39188E-06   -0.13905E-07  5568   0.735E-04    0.635E-04
DAV:  11    -0.137927359629E+04   -0.36748E-06   -0.76133E-08  5296   0.510E-04    0.282E-04
DAV:  12    -0.137927359674E+04   -0.45568E-06   -0.36302E-08  4416   0.401E-04    0.223E-04
DAV:  13    -0.137927359701E+04   -0.26819E-06   -0.23536E-08  4064   0.234E-04    0.163E-04
DAV:  14    -0.137927359725E+04   -0.23608E-06   -0.78096E-09  3200   0.121E-04    0.892E-05
DAV:  15    -0.137927359747E+04   -0.21989E-06   -0.10966E-08  3552   0.973E-05    0.584E-05
DAV:  16    -0.137927359756E+04   -0.97367E-07   -0.30731E-09  3072   0.664E-05    0.330E-05
DAV:  17    -0.137927359767E+04   -0.10441E-06   -0.40764E-09  3072   0.558E-05    0.371E-05
DAV:  18    -0.137927359771E+04   -0.38912E-07   -0.16467E-09  3072   0.468E-05    0.258E-05
DAV:  19    -0.137927359774E+04   -0.32524E-07   -0.17502E-09  3072   0.484E-05    0.343E-05
DAV:  20    -0.137927359775E+04   -0.14275E-07   -0.82130E-10  3072   0.357E-05    0.294E-05
DAV:  21    -0.137927359776E+04   -0.70140E-08   -0.41147E-10  3008   0.298E-05
   4 F= -.13987691E+04 E0= -.13987691E+04  d E =-.688061E-04  mag=    -0.0000
       N       E                     dE             d eps       ncg     rms          rms(c)
DAV:   1    -0.137927275357E+04    0.84419E-03   -0.11640E+00  5120   0.121E+00    0.172E-01
DAV:   2    -0.137927366358E+04   -0.91001E-03   -0.12318E-02  5664   0.116E-01    0.116E-01
DAV:   3    -0.137927348293E+04    0.18065E-03   -0.10939E-03  6112   0.465E-02    0.575E-02
DAV:   4    -0.137927347125E+04    0.11678E-04   -0.30217E-04  6144   0.242E-02    0.211E-02
DAV:   5    -0.137927346708E+04    0.41771E-05   -0.58333E-05  5920   0.112E-02    0.113E-02
DAV:   6    -0.137927346523E+04    0.18480E-05   -0.78769E-06  5728   0.398E-03    0.566E-03
DAV:   7    -0.137927346445E+04    0.78426E-06   -0.46015E-06  6592   0.355E-03    0.240E-03
DAV:   8    -0.137927346429E+04    0.15223E-06   -0.10438E-06  5792   0.179E-03    0.143E-03
DAV:   9    -0.137927346448E+04   -0.18445E-06   -0.55134E-07  6656   0.144E-03    0.994E-04
DAV:  10    -0.137927346500E+04   -0.52634E-06   -0.29328E-07  5856   0.133E-03    0.709E-04
DAV:  11    -0.137927346569E+04   -0.68937E-06   -0.33383E-07  5632   0.987E-04    0.418E-04
DAV:  12    -0.137927346618E+04   -0.48624E-06   -0.80552E-08  5152   0.350E-04    0.364E-04
DAV:  13    -0.137927346653E+04   -0.34738E-06   -0.14829E-08  3552   0.178E-04    0.211E-04
DAV:  14    -0.137927346712E+04   -0.59749E-06   -0.35375E-08  4096   0.182E-04    0.124E-04
DAV:  15    -0.137927346738E+04   -0.25175E-06   -0.65213E-09  3296   0.910E-05    0.850E-05
DAV:  16    -0.137927346766E+04   -0.28413E-06   -0.96203E-09  3392   0.831E-05    0.520E-05
DAV:  17    -0.137927346784E+04   -0.17797E-06   -0.56707E-09  3136   0.647E-05    0.391E-05
DAV:  18    -0.137927346794E+04   -0.97731E-07   -0.45361E-09  3072   0.560E-05    0.196E-05
DAV:  19    -0.137927346798E+04   -0.44078E-07   -0.27284E-09  3136   0.505E-05    0.167E-05
DAV:  20    -0.137927346799E+04   -0.14552E-07   -0.14336E-09  3072   0.379E-05    0.131E-05
DAV:  21    -0.137927346800E+04   -0.87457E-08   -0.66734E-10  3072   0.315E-05
   5 F= -.13987684E+04 E0= -.13987684E+04  d E =0.699689E-03  mag=     0.0000
       N       E                     dE             d eps       ncg     rms          rms(c)
DAV:   1    -0.137927242043E+04    0.10476E-02   -0.11781E+00  5088   0.107E+00    0.108E-01
DAV:   2    -0.137927269963E+04   -0.27920E-03   -0.57868E-03  5376   0.776E-02    0.657E-02
DAV:   3    -0.137927260955E+04    0.90078E-04   -0.60775E-04  5952   0.268E-02    0.220E-02
DAV:   4    -0.137927261050E+04   -0.94622E-06   -0.90250E-05  6016   0.966E-03    0.136E-02
DAV:   5    -0.137927260966E+04    0.84033E-06   -0.70186E-06  5568   0.294E-03    0.706E-03
DAV:   6    -0.137927260934E+04    0.31879E-06   -0.15960E-06  6272   0.207E-03    0.230E-03
DAV:   7    -0.137927260946E+04   -0.11378E-06   -0.69379E-07  6528   0.991E-04    0.105E-03
DAV:   8    -0.137927260974E+04   -0.28235E-06   -0.12636E-07  5472   0.452E-04    0.701E-04
DAV:   9    -0.137927261009E+04   -0.35617E-06   -0.51040E-08  4384   0.344E-04    0.322E-04
DAV:  10    -0.137927261044E+04   -0.34393E-06   -0.54484E-08  4608   0.339E-04    0.207E-04
DAV:  11    -0.137927261070E+04   -0.25814E-06   -0.17563E-08  3904   0.166E-04    0.139E-04
DAV:  12    -0.137927261092E+04   -0.22266E-06   -0.10527E-08  3520   0.994E-05    0.816E-05
DAV:  13    -0.137927261108E+04   -0.16174E-06   -0.95049E-09  3552   0.844E-05    0.537E-05
DAV:  14    -0.137927261115E+04   -0.68714E-07   -0.26648E-09  3072   0.526E-05    0.381E-05
DAV:  15    -0.137927261120E+04   -0.54337E-07   -0.22508E-09  3072   0.432E-05    0.257E-05
DAV:  16    -0.137927261125E+04   -0.49637E-07   -0.22289E-09  3040   0.413E-05    0.257E-05
DAV:  17    -0.137927261127E+04   -0.21304E-07   -0.12353E-09  3072   0.345E-05    0.180E-05
DAV:  18    -0.137927261129E+04   -0.15643E-07   -0.94749E-10  3072   0.343E-05    0.140E-05
DAV:  19    -0.137927261129E+04   -0.37980E-08   -0.31736E-10  2944   0.238E-05
   6 F= -.13987675E+04 E0= -.13987675E+04  d E =0.862024E-03  mag=     0.0000
       N       E                     dE             d eps       ncg     rms          rms(c)
DAV:   1    -0.137927277031E+04   -0.15902E-03   -0.11791E+00  5120   0.108E+00    0.137E-01
DAV:   2    -0.137927319590E+04   -0.42558E-03   -0.74773E-03  5344   0.886E-02    0.869E-02
DAV:   3    -0.137927310142E+04    0.94480E-04   -0.86453E-04  6304   0.387E-02    0.312E-02
DAV:   4    -0.137927310635E+04   -0.49389E-05   -0.14324E-04  6016   0.141E-02    0.179E-02
DAV:   5    -0.137927310284E+04    0.35180E-05   -0.19571E-05  5952   0.647E-03    0.847E-03
DAV:   6    -0.137927310167E+04    0.11639E-05   -0.39374E-06  6384   0.323E-03    0.304E-03
DAV:   7    -0.137927310194E+04   -0.26880E-06   -0.15518E-06  7024   0.209E-03    0.150E-03
DAV:   8    -0.137927310241E+04   -0.47375E-06   -0.36531E-07  6304   0.104E-03    0.104E-03
DAV:   9    -0.137927310348E+04   -0.10677E-05   -0.19860E-07  5376   0.110E-03    0.552E-04
DAV:  10    -0.137927310444E+04   -0.95622E-06   -0.20761E-07  5664   0.871E-04    0.421E-04
DAV:  11    -0.137927310532E+04   -0.88304E-06   -0.13872E-07  5248   0.546E-04    0.319E-04
DAV:  12    -0.137927310598E+04   -0.65942E-06   -0.34675E-08  4544   0.284E-04    0.188E-04
DAV:  13    -0.137927310649E+04   -0.51025E-06   -0.22887E-08  4096   0.177E-04    0.124E-04
DAV:  14    -0.137927310687E+04   -0.37465E-06   -0.11420E-08  3520   0.104E-04    0.745E-05
DAV:  15    -0.137927310714E+04   -0.27573E-06   -0.10218E-08  3584   0.800E-05    0.617E-05
DAV:  16    -0.137927310729E+04   -0.14626E-06   -0.43142E-09  3136   0.723E-05    0.353E-05
DAV:  17    -0.137927310738E+04   -0.93962E-07   -0.43111E-09  3072   0.670E-05    0.426E-05
DAV:  18    -0.137927310741E+04   -0.31097E-07   -0.16637E-09  3136   0.474E-05    0.358E-05
DAV:  19    -0.137927310744E+04   -0.30093E-07   -0.11020E-09  3072   0.402E-05    0.133E-05
DAV:  20    -0.137927310746E+04   -0.13853E-07   -0.54676E-10  3072   0.325E-05    0.131E-05
DAV:  21    -0.137927310746E+04   -0.66939E-08   -0.19730E-10  2944   0.200E-05
   7 F= -.13987684E+04 E0= -.13987684E+04  d E =-.862578E-03  mag=     0.0000
       N       E                     dE             d eps       ncg     rms          rms(c)
DAV:   1    -0.137927312807E+04   -0.20608E-04   -0.11629E+00  5120   0.112E+00    0.187E-01
DAV:   2    -0.137927397577E+04   -0.84771E-03   -0.11731E-02  5568   0.104E-01    0.132E-01
DAV:   3    -0.137927379713E+04    0.17864E-03   -0.14013E-03  6048   0.528E-02    0.628E-02
DAV:   4    -0.137927379475E+04    0.23800E-05   -0.30591E-04  6304   0.227E-02    0.239E-02
DAV:   5    -0.137927378810E+04    0.66558E-05   -0.52348E-05  5888   0.112E-02    0.114E-02
DAV:   6    -0.137927378627E+04    0.18267E-05   -0.77001E-06  5696   0.401E-03    0.496E-03
DAV:   7    -0.137927378608E+04    0.18964E-06   -0.37859E-06  6848   0.303E-03    0.227E-03
DAV:   8    -0.137927378641E+04   -0.32839E-06   -0.84004E-07  5840   0.146E-03    0.135E-03
DAV:   9    -0.137927378715E+04   -0.73834E-06   -0.33294E-07  6640   0.124E-03    0.909E-04
DAV:  10    -0.137927378835E+04   -0.12006E-05   -0.33209E-07  5824   0.122E-03    0.523E-04
DAV:  11    -0.137927378963E+04   -0.12811E-05   -0.26072E-07  5728   0.892E-04    0.375E-04
DAV:  12    -0.137927379039E+04   -0.76488E-06   -0.88022E-08  5120   0.392E-04    0.283E-04
DAV:  13    -0.137927379088E+04   -0.48772E-06   -0.12693E-08  3552   0.141E-04    0.164E-04
DAV:  14    -0.137927379160E+04   -0.71841E-06   -0.32318E-08  4096   0.144E-04    0.119E-04
DAV:  15    -0.137927379189E+04   -0.28781E-06   -0.67246E-09  3360   0.849E-05    0.660E-05
DAV:  16    -0.137927379219E+04   -0.30380E-06   -0.10402E-08  3536   0.727E-05    0.558E-05
DAV:  17    -0.137927379235E+04   -0.15975E-06   -0.37239E-09  3072   0.587E-05    0.351E-05
DAV:  18    -0.137927379246E+04   -0.10818E-06   -0.41741E-09  3104   0.587E-05    0.330E-05
DAV:  19    -0.137927379249E+04   -0.30777E-07   -0.14024E-09  3136   0.432E-05    0.246E-05
DAV:  20    -0.137927379251E+04   -0.20824E-07   -0.97915E-10  3072   0.334E-05    0.162E-05
DAV:  21    -0.137927379252E+04   -0.91677E-08   -0.27281E-10  3072   0.251E-05
   8 F= -.13987687E+04 E0= -.13987687E+04  d E =-.269684E-03  mag=     0.0000
       N       E                     dE             d eps       ncg     rms          rms(c)
DAV:   1    -0.137927256377E+04    0.12287E-02   -0.11708E+00  5120   0.107E+00    0.303E-01
DAV:   2    -0.137927325903E+04   -0.69526E-03   -0.11756E-02  5632   0.110E-01    0.246E-01
DAV:   3    -0.137927310143E+04    0.15761E-03   -0.32955E-03  5696   0.930E-02    0.572E-02
DAV:   4    -0.137927305729E+04    0.44140E-04   -0.81574E-04  5600   0.367E-02    0.326E-02
DAV:   5    -0.137927304408E+04    0.13212E-04   -0.14184E-04  6368   0.169E-02    0.161E-02
DAV:   6    -0.137927304201E+04    0.20663E-05   -0.27838E-05  6496   0.716E-03    0.728E-03
DAV:   7    -0.137927304160E+04    0.41063E-06   -0.38905E-06  6944   0.275E-03    0.355E-03
DAV:   8    -0.137927304293E+04   -0.13341E-05   -0.13942E-06  6464   0.184E-03    0.186E-03
DAV:   9    -0.137927304458E+04   -0.16509E-05   -0.62551E-07  6016   0.141E-03    0.108E-03
DAV:  10    -0.137927304696E+04   -0.23796E-05   -0.32528E-07  5408   0.103E-03    0.618E-04
DAV:  11    -0.137927304944E+04   -0.24770E-05   -0.28711E-07  5360   0.936E-04    0.390E-04
DAV:  12    -0.137927305124E+04   -0.17989E-05   -0.15117E-07  4880   0.473E-04    0.371E-04
DAV:  13    -0.137927305222E+04   -0.97754E-06   -0.32123E-08  4432   0.189E-04    0.196E-04
DAV:  14    -0.137927305322E+04   -0.99798E-06   -0.37274E-08  4096   0.164E-04    0.143E-04
DAV:  15    -0.137927305358E+04   -0.36234E-06   -0.77499E-09  3360   0.102E-04    0.950E-05
DAV:  16    -0.137927305390E+04   -0.32010E-06   -0.10139E-08  3424   0.100E-04    0.539E-05
DAV:  17    -0.137927305411E+04   -0.21294E-06   -0.63383E-09  3264   0.952E-05    0.408E-05
DAV:  18    -0.137927305424E+04   -0.12554E-06   -0.51871E-09  3072   0.816E-05    0.323E-05
DAV:  19    -0.137927305429E+04   -0.58048E-07   -0.27984E-09  3072   0.626E-05    0.238E-05
DAV:  20    -0.137927305433E+04   -0.34765E-07   -0.17006E-09  3072   0.445E-05    0.158E-05
DAV:  21    -0.137927305434E+04   -0.10856E-07   -0.62543E-10  3072   0.308E-05    0.121E-05
DAV:  22    -0.137927305435E+04   -0.98080E-08   -0.23229E-10  3072   0.197E-05
   9 F= -.13987684E+04 E0= -.13987684E+04  d E =0.287507E-03  mag=    -0.0000
       N       E                     dE             d eps       ncg     rms          rms(c)
DAV:   1    -0.137927250123E+04    0.55311E-03   -0.11503E+00  5120   0.105E+00    0.203E-01
DAV:   2    -0.137927351249E+04   -0.10113E-02   -0.12536E-02  5888   0.910E-02    0.147E-01
DAV:   3    -0.137927333827E+04    0.17422E-03   -0.12584E-03  6464   0.413E-02    0.831E-02
DAV:   4    -0.137927331241E+04    0.25858E-04   -0.35951E-04  5568   0.210E-02    0.300E-02
DAV:   5    -0.137927330278E+04    0.96332E-05   -0.15193E-04  5472   0.170E-02    0.121E-02
DAV:   6    -0.137927330487E+04   -0.20911E-05   -0.23649E-05  5472   0.575E-03    0.556E-03
DAV:   7    -0.137927330871E+04   -0.38427E-05   -0.47057E-06  6080   0.304E-03    0.263E-03
DAV:   8    -0.137927331237E+04   -0.36622E-05   -0.77529E-07  5824   0.110E-03    0.154E-03
DAV:   9    -0.137927331709E+04   -0.47179E-05   -0.67854E-07  5152   0.123E-03    0.111E-03
DAV:  10    -0.137927332218E+04   -0.50894E-05   -0.44376E-07  5056   0.646E-04    0.949E-04
DAV:  11    -0.137927332605E+04   -0.38715E-05   -0.52657E-07  5152   0.742E-04    0.531E-04
DAV:  12    -0.137927332888E+04   -0.28277E-05   -0.21055E-07  4944   0.434E-04    0.473E-04
DAV:  13    -0.137927333024E+04   -0.13593E-05   -0.72984E-08  4864   0.257E-04    0.217E-04
DAV:  14    -0.137927333144E+04   -0.12044E-05   -0.58049E-08  4368   0.175E-04    0.122E-04
DAV:  15    -0.137927333197E+04   -0.52745E-06   -0.14783E-08  3680   0.946E-05    0.854E-05
DAV:  16    -0.137927333237E+04   -0.39832E-06   -0.11703E-08  3392   0.843E-05    0.430E-05
DAV:  17    -0.137927333257E+04   -0.20479E-06   -0.61077E-09  3200   0.673E-05    0.324E-05
DAV:  18    -0.137927333266E+04   -0.88097E-07   -0.23236E-09  3072   0.507E-05    0.261E-05
DAV:  19    -0.137927333273E+04   -0.62835E-07   -0.16105E-09  3072   0.412E-05    0.221E-05
DAV:  20    -0.137927333275E+04   -0.24593E-07   -0.61008E-10  3072   0.324E-05    0.114E-05
DAV:  21    -0.137927333277E+04   -0.23967E-07   -0.50718E-10  3008   0.330E-05    0.216E-05
DAV:  22    -0.137927333278E+04   -0.64028E-08   -0.54776E-11  3072   0.213E-05
  10 F= -.13987686E+04 E0= -.13987686E+04  d E =-.253208E-03  mag=     0.0000
       N       E                     dE             d eps       ncg     rms          rms(c)
DAV:   1    -0.137927321562E+04    0.11715E-03   -0.60939E-01  5120   0.779E-01    0.145E-01
DAV:   2    -0.137927375822E+04   -0.54260E-03   -0.76899E-03  5728   0.792E-02    0.989E-02
DAV:   3    -0.137927366240E+04    0.95823E-04   -0.81815E-04  6272   0.391E-02    0.595E-02
DAV:   4    -0.137927364881E+04    0.13586E-04   -0.22958E-04  5632   0.213E-02    0.205E-02
DAV:   5    -0.137927364455E+04    0.42612E-05   -0.57591E-05  5536   0.119E-02    0.988E-03
DAV:   6    -0.137927364414E+04    0.40991E-06   -0.13027E-05  6240   0.534E-03    0.490E-03
DAV:   7    -0.137927364455E+04   -0.41004E-06   -0.30178E-06  6624   0.269E-03    0.247E-03
DAV:   8    -0.137927364545E+04   -0.89500E-06   -0.37472E-07  6144   0.122E-03    0.139E-03
DAV:   9    -0.137927364716E+04   -0.17144E-05   -0.43423E-07  5536   0.140E-03    0.741E-04
DAV:  10    -0.137927364875E+04   -0.15868E-05   -0.27672E-07  5248   0.845E-04    0.787E-04
DAV:  11    -0.137927365038E+04   -0.16336E-05   -0.14385E-07  5408   0.553E-04    0.383E-04
DAV:  12    -0.137927365188E+04   -0.14954E-05   -0.11932E-07  4608   0.516E-04    0.310E-04
DAV:  13    -0.137927365267E+04   -0.79608E-06   -0.51275E-08  4640   0.270E-04    0.237E-04
DAV:  14    -0.137927365322E+04   -0.54663E-06   -0.12901E-08  3520   0.131E-04    0.122E-04
DAV:  15    -0.137927365395E+04   -0.73081E-06   -0.27953E-08  4064   0.119E-04    0.126E-04
DAV:  16    -0.137927365423E+04   -0.27729E-06   -0.52135E-09  3200   0.773E-05    0.635E-05
DAV:  17    -0.137927365444E+04   -0.20879E-06   -0.54645E-09  3168   0.719E-05    0.445E-05
DAV:  18    -0.137927365454E+04   -0.10630E-06   -0.25532E-09  3072   0.536E-05    0.283E-05
DAV:  19    -0.137927365459E+04   -0.50073E-07   -0.20701E-09  3072   0.472E-05    0.194E-05
DAV:  20    -0.137927365461E+04   -0.14028E-07   -0.74617E-10  3136   0.360E-05    0.166E-05
DAV:  21    -0.137927365462E+04   -0.13097E-07   -0.35257E-10  3040   0.245E-05    0.657E-06
DAV:  22    -0.137927365462E+04   -0.30705E-08   -0.45874E-11  3072   0.179E-05
  11 F= -.13987687E+04 E0= -.13987687E+04  d E =-.121809E-03  mag=     0.0000
       N       E                     dE             d eps       ncg     rms          rms(c)
DAV:   1    -0.137927271307E+04    0.94155E-03   -0.61914E-02  5152   0.135E-01    0.794E-02
DAV:   2    -0.137927275569E+04   -0.42615E-04   -0.48267E-04  5440   0.192E-02    0.451E-02
DAV:   3    -0.137927278293E+04   -0.27241E-04   -0.65019E-05  5600   0.815E-03    0.148E-02
DAV:   4    -0.137927278496E+04   -0.20331E-05   -0.33033E-05  6176   0.687E-03    0.686E-03
DAV:   5    -0.137927278440E+04    0.56069E-06   -0.53925E-06  6496   0.270E-03    0.212E-03
DAV:   6    -0.137927278514E+04   -0.74075E-06   -0.10464E-06  5024   0.110E-03    0.123E-03
DAV:   7    -0.137927278571E+04   -0.57250E-06   -0.15725E-07  5488   0.552E-04    0.514E-04
DAV:   8    -0.137927278613E+04   -0.41102E-06   -0.48419E-08  4512   0.260E-04    0.262E-04
DAV:   9    -0.137927278669E+04   -0.56329E-06   -0.32302E-08  4240   0.162E-04    0.158E-04
DAV:  10    -0.137927278707E+04   -0.38308E-06   -0.21125E-08  4080   0.129E-04    0.106E-04
DAV:  11    -0.137927278730E+04   -0.22438E-06   -0.94783E-09  3488   0.975E-05    0.692E-05
DAV:  12    -0.137927278748E+04   -0.17970E-06   -0.83430E-09  3520   0.778E-05    0.679E-05
DAV:  13    -0.137927278758E+04   -0.10522E-06   -0.51841E-09  3168   0.666E-05    0.519E-05
DAV:  14    -0.137927278765E+04   -0.67012E-07   -0.47029E-09  3168   0.790E-05    0.226E-05
DAV:  15    -0.137927278767E+04   -0.24389E-07   -0.25652E-09  3008   0.689E-05    0.293E-05
DAV:  16    -0.137927278769E+04   -0.19500E-07   -0.13257E-09  3072   0.379E-05    0.181E-05
DAV:  17    -0.137927278770E+04   -0.12806E-07   -0.67856E-10  2944   0.297E-05    0.141E-05
DAV:  18    -0.137927278771E+04   -0.38417E-08   -0.21990E-10  2944   0.195E-05
  12 F= -.13987680E+04 E0= -.13987680E+04  d E =0.786182E-03  mag=    -0.0000
       N       E                     dE             d eps       ncg     rms          rms(c)
DAV:   1    -0.137927329212E+04   -0.50441E-03   -0.61250E-02  5056   0.135E-01    0.715E-02
DAV:   2    -0.137927334627E+04   -0.54148E-04   -0.39309E-04  5440   0.171E-02    0.428E-02
DAV:   3    -0.137927337803E+04   -0.31763E-04   -0.42651E-05  5664   0.780E-03    0.965E-03
DAV:   4    -0.137927337862E+04   -0.58988E-06   -0.83951E-06  6528   0.389E-03    0.292E-03
DAV:   5    -0.137927337895E+04   -0.32845E-06   -0.74543E-07  5440   0.109E-03    0.166E-03
DAV:   6    -0.137927337937E+04   -0.42218E-06   -0.29375E-07  5472   0.765E-04    0.866E-04
DAV:   7    -0.137927337984E+04   -0.47186E-06   -0.93575E-08  5376   0.502E-04    0.423E-04
DAV:   8    -0.137927338033E+04   -0.48357E-06   -0.54750E-08  4736   0.338E-04    0.266E-04
DAV:   9    -0.137927338078E+04   -0.45136E-06   -0.22661E-08  4064   0.223E-04    0.156E-04
DAV:  10    -0.137927338124E+04   -0.45837E-06   -0.25445E-08  4096   0.204E-04    0.117E-04
DAV:  11    -0.137927338150E+04   -0.26722E-06   -0.11246E-08  3552   0.122E-04    0.733E-05
DAV:  12    -0.137927338171E+04   -0.20691E-06   -0.89325E-09  3456   0.941E-05    0.538E-05
DAV:  13    -0.137927338182E+04   -0.10629E-06   -0.42574E-09  3168   0.663E-05    0.506E-05
DAV:  14    -0.137927338189E+04   -0.74841E-07   -0.35821E-09  3072   0.677E-05    0.225E-05
DAV:  15    -0.137927338192E+04   -0.32145E-07   -0.24221E-09  3136   0.668E-05    0.297E-05
DAV:  16    -0.137927338194E+04   -0.17710E-07   -0.11304E-09  3072   0.424E-05    0.264E-05
DAV:  17    -0.137927338195E+04   -0.92987E-08   -0.59129E-10  3072   0.351E-05
  13 F= -.13987682E+04 E0= -.13987682E+04  d E =-.245073E-03  mag=    -0.0000
       N       E                     dE             d eps       ncg     rms          rms(c)
DAV:   1    -0.137927399442E+04   -0.61248E-03   -0.70482E-02  5184   0.179E-01    0.987E-02
DAV:   2    -0.137927397710E+04    0.17320E-04   -0.99890E-04  5792   0.294E-02    0.536E-02
DAV:   3    -0.137927398201E+04   -0.49075E-05   -0.14803E-04  5536   0.120E-02    0.221E-02
DAV:   4    -0.137927398274E+04   -0.72805E-06   -0.52316E-05  6016   0.860E-03    0.935E-03
DAV:   5    -0.137927398229E+04    0.45099E-06   -0.11975E-05  6368   0.410E-03    0.237E-03
DAV:   6    -0.137927398265E+04   -0.36684E-06   -0.84912E-07  5248   0.963E-04    0.177E-03
DAV:   7    -0.137927398309E+04   -0.43574E-06   -0.50203E-07  4864   0.841E-04    0.540E-04
DAV:   8    -0.137927398352E+04   -0.43135E-06   -0.55005E-08  4576   0.301E-04    0.404E-04
DAV:   9    -0.137927398392E+04   -0.39877E-06   -0.25643E-08  4160   0.215E-04    0.206E-04
DAV:  10    -0.137927398439E+04   -0.47243E-06   -0.32436E-08  4288   0.225E-04    0.205E-04
DAV:  11    -0.137927398474E+04   -0.35315E-06   -0.17662E-08  3904   0.159E-04    0.116E-04
DAV:  12    -0.137927398496E+04   -0.21652E-06   -0.10066E-08  3552   0.106E-04    0.655E-05
DAV:  13    -0.137927398512E+04   -0.15485E-06   -0.57695E-09  3200   0.770E-05    0.421E-05
DAV:  14    -0.137927398522E+04   -0.10344E-06   -0.55977E-09  3168   0.771E-05    0.262E-05
DAV:  15    -0.137927398526E+04   -0.44223E-07   -0.27842E-09  3136   0.743E-05    0.212E-05
DAV:  16    -0.137927398530E+04   -0.38621E-07   -0.18897E-09  3072   0.521E-05    0.148E-05
DAV:  17    -0.137927398532E+04   -0.14261E-07   -0.59179E-10  3008   0.281E-05    0.130E-05
DAV:  18    -0.137927398533E+04   -0.14043E-07   -0.35005E-10  3072   0.250E-05    0.832E-06
DAV:  19    -0.137927398534E+04   -0.55588E-08   -0.96137E-11  2944   0.182E-05
  14 F= -.13987691E+04 E0= -.13987691E+04  d E =-.844690E-03  mag=    -0.0000
       N       E                     dE             d eps       ncg     rms          rms(c)
DAV:   1    -0.137927317431E+04    0.81102E-03   -0.81273E-02  4416   0.174E-01    0.123E-01
DAV:   2    -0.137927303746E+04    0.13685E-03   -0.12724E-03  5120   0.244E-02    0.695E-02
DAV:   3    -0.137927299959E+04    0.37865E-04   -0.61044E-04  4896   0.161E-02    0.233E-02
DAV:   4    -0.137927298853E+04    0.11063E-04   -0.67758E-05  4912   0.556E-03    0.140E-02
DAV:   5    -0.137927298781E+04    0.71712E-06   -0.15780E-05  5728   0.286E-03    0.289E-03
DAV:   6    -0.137927298784E+04   -0.27881E-07   -0.13004E-06  4576   0.874E-04    0.111E-03
DAV:   7    -0.137927298810E+04   -0.25683E-06   -0.28335E-07  5184   0.395E-04    0.777E-04
DAV:   8    -0.137927298834E+04   -0.24601E-06   -0.30632E-08  3712   0.167E-04    0.341E-04
DAV:   9    -0.137927298862E+04   -0.28145E-06   -0.23174E-08  3744   0.126E-04    0.162E-04
DAV:  10    -0.137927298883E+04   -0.20298E-06   -0.63391E-09  3392   0.769E-05    0.107E-04
DAV:  11    -0.137927298908E+04   -0.24946E-06   -0.94096E-09  3584   0.769E-05    0.611E-05
DAV:  12    -0.137927298924E+04   -0.16598E-06   -0.59815E-09  3392   0.762E-05    0.443E-05
DAV:  13    -0.137927298936E+04   -0.12307E-06   -0.52672E-09  3328   0.799E-05    0.287E-05
DAV:  14    -0.137927298943E+04   -0.60740E-07   -0.28566E-09  3072   0.719E-05    0.195E-05
DAV:  15    -0.137927298948E+04   -0.51703E-07   -0.23370E-09  3072   0.560E-05    0.122E-05
DAV:  16    -0.137927298950E+04   -0.26877E-07   -0.10724E-09  3072   0.358E-05    0.942E-06
DAV:  17    -0.137927298952E+04   -0.15280E-07   -0.38586E-10  3072   0.223E-05    0.612E-06
DAV:  18    -0.137927298953E+04   -0.12267E-07   -0.12934E-10  3072   0.179E-05    0.840E-06
DAV:  19    -0.137927298953E+04   -0.25902E-08    0.11146E-10  2752   0.112E-05
  15 F= -.13987681E+04 E0= -.13987681E+04  d E =0.948041E-03  mag=    -0.0000
       N       E                     dE             d eps       ncg     rms          rms(c)
DAV:   1    -0.137927383580E+04   -0.84627E-03   -0.72962E-02  4352   0.168E-01    0.802E-02
DAV:   2    -0.137927384848E+04   -0.12676E-04   -0.52079E-04  4992   0.139E-02    0.482E-02
DAV:   3    -0.137927384662E+04    0.18508E-05   -0.11274E-04  5376   0.714E-03    0.829E-03
DAV:   4    -0.137927384562E+04    0.10007E-05   -0.10919E-05  5088   0.238E-03    0.503E-03
DAV:   5    -0.137927384562E+04    0.27358E-08   -0.45612E-06  4896   0.158E-03    0.129E-03
DAV:   6    -0.137927384583E+04   -0.20789E-06   -0.44081E-07  4640   0.556E-04    0.712E-04
DAV:   7    -0.137927384608E+04   -0.24837E-06   -0.69935E-08  4064   0.219E-04    0.269E-04
DAV:   8    -0.137927384633E+04   -0.24843E-06   -0.18828E-08  3744   0.108E-04    0.171E-04
DAV:   9    -0.137927384661E+04   -0.28232E-06   -0.93572E-09  3488   0.889E-05    0.930E-05
DAV:  10    -0.137927384689E+04   -0.27847E-06   -0.12295E-08  3616   0.102E-04    0.667E-05
DAV:  11    -0.137927384705E+04   -0.15895E-06   -0.78629E-09  3488   0.128E-04    0.473E-05
DAV:  12    -0.137927384714E+04   -0.98880E-07   -0.67372E-09  3424   0.132E-04    0.330E-05
DAV:  13    -0.137927384720E+04   -0.59474E-07   -0.39728E-09  3248   0.102E-04    0.234E-05
DAV:  14    -0.137927384725E+04   -0.43219E-07   -0.26589E-09  3040   0.685E-05    0.172E-05
DAV:  15    -0.137927384726E+04   -0.99972E-08   -0.80943E-10  3072   0.362E-05
  16 F= -.13987687E+04 E0= -.13987687E+04  d E =-.642763E-03  mag=     0.0000
       N       E                     dE             d eps       ncg     rms          rms(c)
DAV:   1    -0.137927406614E+04   -0.21889E-03   -0.74889E-02  4448   0.198E-01    0.897E-02
DAV:   2    -0.137927407735E+04   -0.11212E-04   -0.79839E-04  4672   0.184E-02    0.542E-02
DAV:   3    -0.137927407129E+04    0.60608E-05   -0.22490E-04  5632   0.101E-02    0.136E-02
DAV:   4    -0.137927406768E+04    0.36078E-05   -0.21029E-05  4928   0.328E-03    0.869E-03
DAV:   5    -0.137927406681E+04    0.87087E-06   -0.11895E-05  4704   0.231E-03    0.160E-03
DAV:   6    -0.137927406696E+04   -0.15386E-06   -0.90934E-07  4256   0.692E-04    0.888E-04
DAV:   7    -0.137927406708E+04   -0.11906E-06   -0.12062E-07  4512   0.270E-04    0.447E-04
DAV:   8    -0.137927406724E+04   -0.15816E-06   -0.26169E-08  3744   0.147E-04    0.261E-04
DAV:   9    -0.137927406741E+04   -0.17056E-06   -0.18851E-08  3920   0.138E-04    0.122E-04
DAV:  10    -0.137927406755E+04   -0.14220E-06   -0.91987E-09  3520   0.133E-04    0.985E-05
DAV:  11    -0.137927406765E+04   -0.93336E-07   -0.95653E-09  3712   0.146E-04    0.667E-05
DAV:  12    -0.137927406773E+04   -0.81665E-07   -0.67679E-09  3360   0.119E-04    0.309E-05
DAV:  13    -0.137927406778E+04   -0.53231E-07   -0.29889E-09  3008   0.657E-05    0.351E-05
DAV:  14    -0.137927406782E+04   -0.39043E-07   -0.18250E-09  3072   0.478E-05    0.248E-05
DAV:  15    -0.137927406785E+04   -0.27518E-07   -0.15252E-09  3072   0.428E-05    0.176E-05
DAV:  16    -0.137927406786E+04   -0.89349E-08   -0.61495E-10  2944   0.282E-05
  17 F= -.13987691E+04 E0= -.13987691E+04  d E =-.398064E-03  mag=     0.0000
       N       E                     dE             d eps       ncg     rms          rms(c)
DAV:   1    -0.137927361147E+04    0.45638E-03   -0.73098E-02  4416   0.201E-01    0.796E-02
DAV:   2    -0.137927362765E+04   -0.16185E-04   -0.49761E-04  4480   0.151E-02    0.477E-02
DAV:   3    -0.137927363017E+04   -0.25221E-05   -0.79574E-05  5248   0.624E-03    0.620E-03
DAV:   4    -0.137927362990E+04    0.27387E-06   -0.74567E-06  4768   0.191E-03    0.362E-03
DAV:   5    -0.137927362993E+04   -0.30559E-07   -0.25782E-06  4640   0.124E-03    0.116E-03
DAV:   6    -0.137927363015E+04   -0.22071E-06   -0.30756E-07  4704   0.508E-04    0.652E-04
DAV:   7    -0.137927363043E+04   -0.27333E-06   -0.52700E-08  3808   0.193E-04    0.263E-04
DAV:   8    -0.137927363073E+04   -0.30339E-06   -0.18358E-08  3648   0.102E-04    0.158E-04
DAV:   9    -0.137927363112E+04   -0.38718E-06   -0.15546E-08  3616   0.111E-04    0.866E-05
DAV:  10    -0.137927363139E+04   -0.27625E-06   -0.10993E-08  3456   0.917E-05    0.720E-05
DAV:  11    -0.137927363156E+04   -0.16393E-06   -0.56152E-09  3264   0.886E-05    0.457E-05
DAV:  12    -0.137927363170E+04   -0.13903E-06   -0.63236E-09  3392   0.814E-05    0.411E-05
DAV:  13    -0.137927363178E+04   -0.86162E-07   -0.30910E-09  3072   0.615E-05    0.190E-05
DAV:  14    -0.137927363184E+04   -0.54773E-07   -0.27359E-09  3104   0.555E-05    0.243E-05
DAV:  15    -0.137927363185E+04   -0.10230E-07   -0.86980E-10  3072   0.375E-05    0.170E-05
DAV:  16    -0.137927363186E+04   -0.15047E-07   -0.70171E-10  3008   0.330E-05    0.300E-05
DAV:  17    -0.137927363186E+04   -0.33469E-08   -0.10891E-10  2880   0.217E-05
  18 F= -.13987686E+04 E0= -.13987686E+04  d E =0.529963E-03  mag=    -0.0000
       N       E                     dE             d eps       ncg     rms          rms(c)
DAV:   1    -0.137927308786E+04    0.54401E-03   -0.83482E-02  4448   0.210E-01    0.132E-01
DAV:   2    -0.137927293926E+04    0.14859E-03   -0.16326E-03  4672   0.313E-02    0.761E-02
DAV:   3    -0.137927289045E+04    0.48812E-04   -0.84121E-04  4992   0.199E-02    0.265E-02
DAV:   4    -0.137927287559E+04    0.14863E-04   -0.95158E-05  4800   0.670E-03    0.162E-02
DAV:   5    -0.137927287443E+04    0.11552E-05   -0.23325E-05  5824   0.345E-03    0.361E-03
DAV:   6    -0.137927287439E+04    0.40614E-07   -0.21312E-06  4384   0.110E-03    0.125E-03
DAV:   7    -0.137927287469E+04   -0.29655E-06   -0.45185E-07  5232   0.506E-04    0.972E-04
DAV:   8    -0.137927287496E+04   -0.26904E-06   -0.40786E-08  3872   0.198E-04    0.459E-04
DAV:   9    -0.137927287532E+04   -0.36122E-06   -0.44754E-08  4064   0.156E-04    0.234E-04
DAV:  10    -0.137927287554E+04   -0.22149E-06   -0.74865E-09  3456   0.995E-05    0.152E-04
DAV:  11    -0.137927287581E+04   -0.27160E-06   -0.10450E-08  3552   0.977E-05    0.789E-05
DAV:  12    -0.137927287606E+04   -0.24529E-06   -0.10438E-08  3552   0.102E-04    0.631E-05
DAV:  13    -0.137927287621E+04   -0.14766E-06   -0.60650E-09  3360   0.856E-05    0.489E-05
DAV:  14    -0.137927287630E+04   -0.93176E-07   -0.43829E-09  3104   0.912E-05    0.259E-05
DAV:  15    -0.137927287637E+04   -0.67157E-07   -0.40111E-09  3104   0.831E-05    0.252E-05
DAV:  16    -0.137927287640E+04   -0.30093E-07   -0.15222E-09  3072   0.455E-05    0.218E-05
DAV:  17    -0.137927287642E+04   -0.28071E-07   -0.87293E-10  3072   0.322E-05    0.145E-05
DAV:  18    -0.137927287643E+04   -0.95897E-08   -0.33929E-10  3072   0.226E-05
  19 F= -.13987679E+04 E0= -.13987679E+04  d E =0.698489E-03  mag=     0.0000
       N       E                     dE             d eps       ncg     rms          rms(c)
DAV:   1    -0.137927390726E+04   -0.10308E-02   -0.79372E-02  4896   0.208E-01    0.113E-01
DAV:   2    -0.137927385209E+04    0.55173E-04   -0.13677E-03  5120   0.285E-02    0.677E-02
DAV:   3    -0.137927382241E+04    0.29686E-04   -0.66839E-04  5184   0.179E-02    0.239E-02
DAV:   4    -0.137927381075E+04    0.11653E-04   -0.80789E-05  4704   0.598E-03    0.155E-02
DAV:   5    -0.137927380864E+04    0.21151E-05   -0.22281E-05  5120   0.326E-03    0.402E-03
DAV:   6    -0.137927380847E+04    0.16848E-06   -0.26167E-06  4576   0.117E-03    0.122E-03
DAV:   7    -0.137927380857E+04   -0.96770E-07   -0.47755E-07  4960   0.527E-04    0.925E-04
DAV:   8    -0.137927380874E+04   -0.17646E-06   -0.70418E-08  4000   0.240E-04    0.363E-04
DAV:   9    -0.137927380893E+04   -0.18669E-06   -0.35094E-08  4032   0.167E-04    0.228E-04
DAV:  10    -0.137927380913E+04   -0.19810E-06   -0.87007E-09  3584   0.107E-04    0.128E-04
DAV:  11    -0.137927380929E+04   -0.16534E-06   -0.67309E-09  3456   0.894E-05    0.784E-05
DAV:  12    -0.137927380947E+04   -0.17454E-06   -0.89630E-09  3456   0.931E-05    0.524E-05
DAV:  13    -0.137927380957E+04   -0.99797E-07   -0.52425E-09  3264   0.761E-05    0.430E-05
DAV:  14    -0.137927380963E+04   -0.62428E-07   -0.35668E-09  3072   0.645E-05    0.265E-05
DAV:  15    -0.137927380966E+04   -0.32145E-07   -0.27934E-09  3072   0.617E-05    0.234E-05
DAV:  16    -0.137927380968E+04   -0.17069E-07   -0.17287E-09  3072   0.480E-05    0.180E-05
DAV:  17    -0.137927380969E+04   -0.89785E-08   -0.83214E-10  3072   0.277E-05
  20 F= -.13987689E+04 E0= -.13987689E+04  d E =-.958498E-03  mag=    -0.0000
       N       E                     dE             d eps       ncg     rms          rms(c)
DAV:   1    -0.137927331087E+04    0.49881E-03   -0.82059E-02  4960   0.186E-01    0.127E-01
DAV:   2    -0.137927314727E+04    0.16361E-03   -0.12460E-03  5184   0.256E-02    0.713E-02
DAV:   3    -0.137927311179E+04    0.35473E-04   -0.72937E-04  5264   0.183E-02    0.267E-02
DAV:   4    -0.137927309727E+04    0.14525E-04   -0.74464E-05  5056   0.593E-03    0.167E-02
DAV:   5    -0.137927309539E+04    0.18790E-05   -0.26175E-05  5472   0.355E-03    0.299E-03
DAV:   6    -0.137927309524E+04    0.15105E-06   -0.18757E-06  5152   0.127E-03    0.117E-03
DAV:   7    -0.137927309523E+04    0.31723E-08   -0.25545E-07  5184   0.423E-04    0.965E-04
DAV:   8    -0.137927309531E+04   -0.81156E-07   -0.63558E-08  4416   0.342E-04    0.381E-04
DAV:   9    -0.137927309540E+04   -0.84052E-07   -0.40491E-08  4320   0.264E-04    0.251E-04
DAV:  10    -0.137927309553E+04   -0.13465E-06   -0.14443E-08  3712   0.166E-04    0.152E-04
DAV:  11    -0.137927309565E+04   -0.11396E-06   -0.65112E-09  3328   0.135E-04    0.900E-05
DAV:  12    -0.137927309579E+04   -0.14537E-06   -0.13198E-08  3776   0.150E-04    0.857E-05
DAV:  13    -0.137927309585E+04   -0.60274E-07   -0.40981E-09  3136   0.998E-05    0.564E-05
DAV:  14    -0.137927309591E+04   -0.54599E-07   -0.40761E-09  3136   0.896E-05    0.542E-05
DAV:  15    -0.137927309595E+04   -0.39625E-07   -0.29598E-09  3136   0.767E-05    0.449E-05
DAV:  16    -0.137927309596E+04   -0.16778E-07   -0.17742E-09  3072   0.612E-05    0.251E-05
DAV:  17    -0.137927309598E+04   -0.19078E-07   -0.15329E-09  3072   0.523E-05    0.409E-05
DAV:  18    -0.137927309599E+04   -0.86293E-08   -0.49144E-10  2944   0.309E-05
  21 F= -.13987681E+04 E0= -.13987681E+04  d E =0.725879E-03  mag=    -0.0000
       N       E                     dE             d eps       ncg     rms          rms(c)
DAV:   1    -0.137927391792E+04   -0.82194E-03   -0.73530E-02  4928   0.178E-01    0.825E-02
DAV:   2    -0.137927392859E+04   -0.10671E-04   -0.52871E-04  5312   0.154E-02    0.497E-02
DAV:   3    -0.137927392413E+04    0.44666E-05   -0.12560E-04  5568   0.803E-03    0.942E-03
DAV:   4    -0.137927392269E+04    0.14387E-05   -0.12817E-05  5088   0.264E-03    0.579E-03
DAV:   5    -0.137927392252E+04    0.17023E-06   -0.74794E-06  4896   0.190E-03    0.159E-03
DAV:   6    -0.137927392256E+04   -0.40556E-07   -0.70695E-07  4640   0.753E-04    0.762E-04
DAV:   7    -0.137927392271E+04   -0.15632E-06   -0.10000E-07  4128   0.293E-04    0.323E-04
DAV:   8    -0.137927392288E+04   -0.16693E-06   -0.22404E-08  3904   0.146E-04    0.169E-04
DAV:   9    -0.137927392305E+04   -0.16908E-06   -0.97728E-09  3616   0.123E-04    0.102E-04
DAV:  10    -0.137927392322E+04   -0.16924E-06   -0.94517E-09  3680   0.113E-04    0.610E-05
DAV:  11    -0.137927392333E+04   -0.10857E-06   -0.54606E-09  3200   0.936E-05    0.450E-05
DAV:  12    -0.137927392341E+04   -0.78391E-07   -0.44912E-09  3072   0.901E-05    0.305E-05
DAV:  13    -0.137927392346E+04   -0.54031E-07   -0.42395E-09  3104   0.913E-05    0.208E-05
DAV:  14    -0.137927392350E+04   -0.34022E-07   -0.27329E-09  3040   0.707E-05    0.143E-05
DAV:  15    -0.137927392351E+04   -0.17491E-07   -0.11348E-09  3072   0.357E-05    0.118E-05
DAV:  16    -0.137927392352E+04   -0.87020E-08   -0.54458E-10  3072   0.251E-05
  22 F= -.13987687E+04 E0= -.13987687E+04  d E =-.506217E-03  mag=     0.0000
       N       E                     dE             d eps       ncg     rms          rms(c)
DAV:   1    -0.137927381310E+04    0.11041E-03   -0.74433E-02  5088   0.193E-01    0.892E-02
DAV:   2    -0.137927381580E+04   -0.27025E-05   -0.77047E-04  5280   0.186E-02    0.551E-02
DAV:   3    -0.137927380307E+04    0.12734E-04   -0.28505E-04  5408   0.120E-02    0.157E-02
DAV:   4    -0.137927379817E+04    0.48995E-05   -0.34639E-05  4800   0.412E-03    0.996E-03
DAV:   5    -0.137927379709E+04    0.10764E-05   -0.16829E-05  4864   0.276E-03    0.185E-03
DAV:   6    -0.137927379725E+04   -0.15575E-06   -0.99415E-07  4448   0.746E-04    0.104E-03
DAV:   7    -0.137927379750E+04   -0.25051E-06   -0.14057E-07  4576   0.291E-04    0.460E-04
DAV:   8    -0.137927379781E+04   -0.31546E-06   -0.44524E-08  3968   0.178E-04    0.281E-04
DAV:   9    -0.137927379816E+04   -0.34983E-06   -0.19473E-08  3936   0.122E-04    0.135E-04
DAV:  10    -0.137927379850E+04   -0.33352E-06   -0.14966E-08  3744   0.998E-05    0.104E-04
DAV:  11    -0.137927379872E+04   -0.22324E-06   -0.81805E-09  3472   0.933E-05    0.719E-05
DAV:  12    -0.137927379892E+04   -0.19628E-06   -0.12023E-08  3808   0.125E-04    0.411E-05
DAV:  13    -0.137927379899E+04   -0.75976E-07   -0.40011E-09  3136   0.986E-05    0.425E-05
DAV:  14    -0.137927379905E+04   -0.60914E-07   -0.24470E-09  3072   0.533E-05    0.228E-05
DAV:  15    -0.137927379909E+04   -0.32087E-07   -0.14528E-09  3072   0.433E-05    0.157E-05
DAV:  16    -0.137927379910E+04   -0.12136E-07   -0.52487E-10  2944   0.255E-05    0.113E-05
DAV:  17    -0.137927379911E+04   -0.14334E-07   -0.38180E-10  3008   0.250E-05    0.119E-05
DAV:  18    -0.137927379912E+04   -0.55297E-08   -0.16385E-10  2928   0.169E-05
  23 F= -.13987689E+04 E0= -.13987689E+04  d E =-.253795E-03  mag=    -0.0000
       N       E                     dE             d eps       ncg     rms          rms(c)
DAV:   1    -0.137927312554E+04    0.67357E-03   -0.80336E-02  5024   0.198E-01    0.121E-01
DAV:   2    -0.137927300753E+04    0.11801E-03   -0.11314E-03  5056   0.252E-02    0.688E-02
DAV:   3    -0.137927297629E+04    0.31243E-04   -0.60846E-04  5120   0.166E-02    0.234E-02
DAV:   4    -0.137927296541E+04    0.10877E-04   -0.64818E-05  4608   0.554E-03    0.149E-02
DAV:   5    -0.137927296434E+04    0.10704E-05   -0.18788E-05  5408   0.301E-03    0.327E-03
DAV:   6    -0.137927296423E+04    0.10921E-06   -0.19003E-06  4736   0.103E-03    0.112E-03
DAV:   7    -0.137927296425E+04   -0.14916E-07   -0.28701E-07  4992   0.369E-04    0.916E-04
DAV:   8    -0.137927296427E+04   -0.27067E-07   -0.27536E-08  3840   0.163E-04    0.391E-04
DAV:   9    -0.137927296431E+04   -0.31185E-07   -0.25532E-08  3712   0.140E-04    0.162E-04
DAV:  10    -0.137927296434E+04   -0.33469E-07   -0.39233E-09  3136   0.690E-05    0.866E-05
DAV:  11    -0.137927296437E+04   -0.32043E-07   -0.19769E-09  3072   0.497E-05    0.470E-05
DAV:  12    -0.137927296441E+04   -0.36409E-07   -0.21435E-09  3072   0.536E-05    0.366E-05
DAV:  13    -0.137927296443E+04   -0.21057E-07   -0.15406E-09  3072   0.486E-05    0.383E-05
DAV:  14    -0.137927296444E+04   -0.15556E-07   -0.17115E-09  3072   0.503E-05    0.329E-05
DAV:  15    -0.137927296445E+04   -0.57044E-08   -0.85270E-10  2944   0.367E-05
  24 F= -.13987680E+04 E0= -.13987680E+04  d E =0.909862E-03  mag=    -0.0000
       N       E                     dE             d eps       ncg     rms          rms(c)
DAV:   1    -0.137927383423E+04   -0.86978E-03   -0.73389E-02  4960   0.189E-01    0.829E-02
DAV:   2    -0.137927385418E+04   -0.19953E-04   -0.58698E-04  5232   0.161E-02    0.499E-02
DAV:   3    -0.137927385037E+04    0.38085E-05   -0.12027E-04  5312   0.775E-03    0.867E-03
DAV:   4    -0.137927384951E+04    0.86785E-06   -0.12199E-05  4800   0.249E-03    0.535E-03
DAV:   5    -0.137927384920E+04    0.30053E-06   -0.50879E-06  4800   0.168E-03    0.134E-03
DAV:   6    -0.137927384928E+04   -0.73822E-07   -0.48080E-07  4576   0.594E-04    0.775E-04
DAV:   7    -0.137927384939E+04   -0.11655E-06   -0.74762E-08  4032   0.232E-04    0.293E-04
DAV:   8    -0.137927384952E+04   -0.12739E-06   -0.16901E-08  3584   0.115E-04    0.176E-04
DAV:   9    -0.137927384967E+04   -0.15117E-06   -0.85936E-09  3296   0.103E-04    0.879E-05
DAV:  10    -0.137927384982E+04   -0.14291E-06   -0.96249E-09  3392   0.112E-04    0.679E-05
DAV:  11    -0.137927384991E+04   -0.92507E-07   -0.75922E-09  3360   0.120E-04    0.500E-05
DAV:  12    -0.137927384999E+04   -0.76194E-07   -0.86892E-09  3536   0.130E-04    0.296E-05
DAV:  13    -0.137927385002E+04   -0.33193E-07   -0.34798E-09  3040   0.899E-05    0.246E-05
DAV:  14    -0.137927385006E+04   -0.41822E-07   -0.22288E-09  3008   0.461E-05    0.135E-05
DAV:  15    -0.137927385007E+04   -0.12689E-07   -0.79747E-10  3072   0.321E-05    0.119E-05
DAV:  16    -0.137927385008E+04   -0.73924E-08   -0.32252E-10  3072   0.204E-05
  25 F= -.13987686E+04 E0= -.13987686E+04  d E =-.612807E-03  mag=     0.0000
       N       E                     dE             d eps       ncg     rms          rms(c)
DAV:   1    -0.137927316371E+04    0.68636E-03   -0.78772E-02  5120   0.211E-01    0.112E-01
DAV:   2    -0.137927311106E+04    0.52646E-04   -0.12813E-03  5088   0.262E-02    0.684E-02
DAV:   3    -0.137927308202E+04    0.29041E-04   -0.67373E-04  5280   0.180E-02    0.242E-02
DAV:   4    -0.137927307037E+04    0.11654E-04   -0.80899E-05  4736   0.601E-03    0.163E-02
DAV:   5    -0.137927306825E+04    0.21215E-05   -0.26590E-05  4992   0.345E-03    0.391E-03
DAV:   6    -0.137927306813E+04    0.11912E-06   -0.23616E-06  4640   0.116E-03    0.129E-03
DAV:   7    -0.137927306818E+04   -0.54803E-07   -0.51638E-07  5056   0.504E-04    0.796E-04
DAV:   8    -0.137927306827E+04   -0.85187E-07   -0.50936E-08  3840   0.205E-04    0.365E-04
DAV:   9    -0.137927306836E+04   -0.92085E-07   -0.24693E-08  3776   0.152E-04    0.140E-04
DAV:  10    -0.137927306845E+04   -0.96174E-07   -0.59955E-09  3232   0.946E-05    0.983E-05
DAV:  11    -0.137927306853E+04   -0.77431E-07   -0.42453E-09  3088   0.789E-05    0.753E-05
DAV:  12    -0.137927306861E+04   -0.81956E-07   -0.61162E-09  3168   0.106E-04    0.335E-05
DAV:  13    -0.137927306865E+04   -0.39974E-07   -0.49463E-09  3056   0.109E-04    0.365E-05
DAV:  14    -0.137927306868E+04   -0.24476E-07   -0.26455E-09  3072   0.724E-05    0.258E-05
DAV:  15    -0.137927306870E+04   -0.25728E-07   -0.17548E-09  3024   0.451E-05    0.159E-05
DAV:  16    -0.137927306871E+04   -0.90804E-08   -0.60901E-10  2976   0.284E-05
  26 F= -.13987681E+04 E0= -.13987681E+04  d E =0.519388E-03  mag=    -0.0000
       N       E                     dE             d eps       ncg     rms          rms(c)
DAV:   1    -0.137927402945E+04   -0.96074E-03   -0.81673E-02  4992   0.196E-01    0.127E-01
DAV:   2    -0.137927387743E+04    0.15202E-03   -0.13340E-03  5248   0.274E-02    0.736E-02
DAV:   3    -0.137927384019E+04    0.37237E-04   -0.82137E-04  5152   0.193E-02    0.282E-02
DAV:   4    -0.137927382344E+04    0.16747E-04   -0.91427E-05  4896   0.649E-03    0.172E-02
DAV:   5    -0.137927382179E+04    0.16471E-05   -0.31656E-05  5664   0.380E-03    0.276E-03
DAV:   6    -0.137927382172E+04    0.71130E-07   -0.15363E-06  5056   0.113E-03    0.108E-03
DAV:   7    -0.137927382181E+04   -0.89742E-07   -0.22670E-07  5152   0.376E-04    0.722E-04
DAV:   8    -0.137927382188E+04   -0.61787E-07   -0.34100E-08  3968   0.232E-04    0.285E-04
DAV:   9    -0.137927382194E+04   -0.60420E-07   -0.17616E-08  3840   0.168E-04    0.155E-04
DAV:  10    -0.137927382199E+04   -0.56578E-07   -0.61097E-09  3168   0.127E-04    0.908E-05
DAV:  11    -0.137927382203E+04   -0.38111E-07   -0.36009E-09  3088   0.973E-05    0.643E-05
DAV:  12    -0.137927382206E+04   -0.33484E-07   -0.37650E-09  3088   0.101E-04    0.400E-05
DAV:  13    -0.137927382208E+04   -0.20198E-07   -0.31355E-09  3088   0.875E-05    0.334E-05
DAV:  14    -0.137927382210E+04   -0.12573E-07   -0.16645E-09  3072   0.598E-05    0.253E-05
DAV:  15    -0.137927382211E+04   -0.12966E-07   -0.11648E-09  3040   0.418E-05    0.182E-05
DAV:  16    -0.137927382211E+04   -0.47876E-08   -0.51749E-10  2944   0.279E-05
  27 F= -.13987689E+04 E0= -.13987689E+04  d E =-.760634E-03  mag=    -0.0000
       N       E                     dE             d eps       ncg     rms          rms(c)
DAV:   1    -0.137927417397E+04   -0.35186E-03   -0.76299E-02  5184   0.191E-01    0.101E-01
DAV:   2    -0.137927411692E+04    0.57049E-04   -0.73835E-04  4736   0.193E-02    0.597E-02
DAV:   3    -0.137927410274E+04    0.14181E-04   -0.41486E-04  4704   0.138E-02    0.197E-02
DAV:   4    -0.137927409428E+04    0.84611E-05   -0.44292E-05  4544   0.454E-03    0.125E-02
DAV:   5    -0.137927409283E+04    0.14467E-05   -0.20519E-05  4672   0.293E-03    0.200E-03
DAV:   6    -0.137927409301E+04   -0.17905E-06   -0.10483E-06  4848   0.792E-04    0.103E-03
DAV:   7    -0.137927409320E+04   -0.19289E-06   -0.17348E-07  4608   0.295E-04    0.737E-04
DAV:   8    -0.137927409352E+04   -0.31793E-06   -0.61245E-08  4192   0.231E-04    0.216E-04
DAV:   9    -0.137927409376E+04   -0.23688E-06   -0.23820E-08  4064   0.143E-04    0.216E-04
DAV:  10    -0.137927409400E+04   -0.24015E-06   -0.11015E-08  3744   0.998E-05    0.852E-05
DAV:  11    -0.137927409417E+04   -0.17880E-06   -0.87893E-09  3600   0.927E-05    0.786E-05
DAV:  12    -0.137927409429E+04   -0.11794E-06   -0.67216E-09  3296   0.106E-04    0.446E-05
DAV:  13    -0.137927409436E+04   -0.69922E-07   -0.54364E-09  3168   0.102E-04    0.385E-05
DAV:  14    -0.137927409440E+04   -0.36060E-07   -0.25365E-09  2976   0.590E-05    0.245E-05
DAV:  15    -0.137927409444E+04   -0.37253E-07   -0.26974E-09  3024   0.541E-05    0.261E-05
DAV:  16    -0.137927409444E+04   -0.82218E-08   -0.10039E-09  2944   0.380E-05
  28 F= -.13987688E+04 E0= -.13987688E+04  d E =0.568563E-04  mag=    -0.0000
       N       E                     dE             d eps       ncg     rms          rms(c)
DAV:   1    -0.137927388483E+04    0.20961E-03   -0.72532E-02  5184   0.206E-01    0.805E-02
DAV:   2    -0.137927390071E+04   -0.15876E-04   -0.58042E-04  5056   0.165E-02    0.495E-02
DAV:   3    -0.137927389381E+04    0.68950E-05   -0.12302E-04  5376   0.787E-03    0.739E-03
DAV:   4    -0.137927389403E+04   -0.22104E-06   -0.13924E-05  4704   0.223E-03    0.513E-03
DAV:   5    -0.137927389441E+04   -0.37783E-06   -0.44887E-06  4576   0.144E-03    0.157E-03
DAV:   6    -0.137927389492E+04   -0.50770E-06   -0.42786E-07  4432   0.517E-04    0.923E-04
DAV:   7    -0.137927389583E+04   -0.90871E-06   -0.17025E-07  4288   0.300E-04    0.338E-04
DAV:   8    -0.137927389647E+04   -0.64164E-06   -0.44046E-08  4096   0.127E-04    0.235E-04
DAV:   9    -0.137927389737E+04   -0.90095E-06   -0.45033E-08  4160   0.132E-04    0.119E-04
DAV:  10    -0.137927389793E+04   -0.55971E-06   -0.28390E-08  4096   0.111E-04    0.797E-05
DAV:  11    -0.137927389823E+04   -0.30486E-06   -0.10791E-08  3776   0.973E-05    0.603E-05
DAV:  12    -0.137927389847E+04   -0.23577E-06   -0.12201E-08  3936   0.123E-04    0.365E-05
DAV:  13    -0.137927389858E+04   -0.10630E-06   -0.48363E-09  3168   0.983E-05    0.224E-05
DAV:  14    -0.137927389863E+04   -0.55370E-07   -0.25258E-09  3072   0.562E-05    0.195E-05
DAV:  15    -0.137927389866E+04   -0.32218E-07   -0.14330E-09  3072   0.431E-05    0.137E-05
DAV:  16    -0.137927389869E+04   -0.22803E-07   -0.78830E-10  3072   0.293E-05    0.713E-06
DAV:  17    -0.137927389869E+04   -0.61118E-08   -0.26199E-10  3072   0.208E-05
  29 F= -.13987690E+04 E0= -.13987690E+04  d E =-.167666E-03  mag=     0.0000
       N       E                     dE             d eps       ncg     rms          rms(c)
DAV:   1    -0.137927375527E+04    0.14342E-03   -0.72389E-02  4352   0.200E-01    0.775E-02
DAV:   2    -0.137927377496E+04   -0.19689E-04   -0.45158E-04  4512   0.142E-02    0.468E-02
DAV:   3    -0.137927377758E+04   -0.26285E-05   -0.59987E-05  5280   0.531E-03    0.442E-03
DAV:   4    -0.137927377788E+04   -0.29801E-06   -0.55852E-06  5248   0.140E-03    0.280E-03
DAV:   5    -0.137927377828E+04   -0.40080E-06   -0.10647E-06  4608   0.859E-04    0.797E-04
DAV:   6    -0.137927377881E+04   -0.52832E-06   -0.19308E-07  5184   0.386E-04    0.443E-04
DAV:   7    -0.137927377934E+04   -0.52807E-06   -0.27874E-08  3840   0.134E-04    0.260E-04
DAV:   8    -0.137927378007E+04   -0.73465E-06   -0.26660E-08  4032   0.106E-04    0.163E-04
DAV:   9    -0.137927378097E+04   -0.89922E-06   -0.47289E-08  4096   0.135E-04    0.973E-05
DAV:  10    -0.137927378134E+04   -0.36186E-06   -0.10803E-08  3744   0.861E-05    0.708E-05
DAV:  11    -0.137927378162E+04   -0.28481E-06   -0.83382E-09  3456   0.865E-05    0.462E-05
DAV:  12    -0.137927378177E+04   -0.15333E-06   -0.45462E-09  3168   0.724E-05    0.362E-05
DAV:  13    -0.137927378190E+04   -0.12918E-06   -0.51472E-09  3232   0.614E-05    0.181E-05
DAV:  14    -0.137927378195E+04   -0.50626E-07   -0.24426E-09  3072   0.550E-05    0.149E-05
DAV:  15    -0.137927378197E+04   -0.20518E-07   -0.10427E-09  3072   0.357E-05    0.106E-05
DAV:  16    -0.137927378199E+04   -0.18685E-07   -0.56043E-10  3008   0.262E-05    0.721E-06
DAV:  17    -0.137927378200E+04   -0.42783E-08   -0.82718E-11  3072   0.155E-05
  30 F= -.13987688E+04 E0= -.13987688E+04  d E =0.164397E-03  mag=     0.0000
       N       E                     dE             d eps       ncg     rms          rms(c)
DAV:   1    -0.137927308779E+04    0.69421E-03   -0.82538E-02  4352   0.209E-01    0.129E-01
DAV:   2    -0.137927294200E+04    0.14579E-03   -0.14955E-03  4768   0.295E-02    0.747E-02
DAV:   3    -0.137927289866E+04    0.43336E-04   -0.87805E-04  5088   0.201E-02    0.287E-02
DAV:   4    -0.137927288133E+04    0.17329E-04   -0.86295E-05  4864   0.655E-03    0.178E-02
DAV:   5    -0.137927287890E+04    0.24283E-05   -0.33685E-05  5088   0.396E-03    0.302E-03
DAV:   6    -0.137927287912E+04   -0.21825E-06   -0.25096E-06  4896   0.121E-03    0.128E-03
DAV:   7    -0.137927287955E+04   -0.43208E-06   -0.32018E-07  5056   0.420E-04    0.114E-03
DAV:   8    -0.137927287999E+04   -0.43935E-06   -0.53001E-08  4000   0.221E-04    0.403E-04
DAV:   9    -0.137927288050E+04   -0.51064E-06   -0.47547E-08  4256   0.155E-04    0.273E-04
DAV:  10    -0.137927288089E+04   -0.38276E-06   -0.12992E-08  3744   0.120E-04    0.134E-04
DAV:  11    -0.137927288127E+04   -0.38110E-06   -0.15765E-08  3936   0.106E-04    0.943E-05
DAV:  12    -0.137927288158E+04   -0.31237E-06   -0.12035E-08  3680   0.997E-05    0.616E-05
DAV:  13    -0.137927288175E+04   -0.17438E-06   -0.74311E-09  3488   0.892E-05    0.473E-05
DAV:  14    -0.137927288187E+04   -0.11320E-06   -0.51764E-09  3200   0.938E-05    0.259E-05
DAV:  15    -0.137927288195E+04   -0.77460E-07   -0.46063E-09  3168   0.872E-05    0.271E-05
DAV:  16    -0.137927288197E+04   -0.28740E-07   -0.15989E-09  3072   0.497E-05    0.210E-05
DAV:  17    -0.137927288201E+04   -0.34008E-07   -0.97736E-10  3072   0.371E-05    0.202E-05
DAV:  18    -0.137927288202E+04   -0.12689E-07   -0.38333E-10  3072   0.259E-05    0.181E-05
DAV:  19    -0.137927288203E+04   -0.52969E-08   -0.52338E-11  2880   0.163E-05
  31 F= -.13987679E+04 E0= -.13987679E+04  d E =0.892687E-03  mag=     0.0000
       N       E                     dE             d eps       ncg     rms          rms(c)
DAV:   1    -0.137927410789E+04   -0.12259E-02   -0.78024E-02  4416   0.214E-01    0.110E-01
DAV:   2    -0.137927405880E+04    0.49089E-04   -0.12446E-03  4864   0.273E-02    0.658E-02
DAV:   3    -0.137927403455E+04    0.24252E-04   -0.62441E-04  5376   0.171E-02    0.234E-02
DAV:   4    -0.137927402360E+04    0.10945E-04   -0.66076E-05  4960   0.554E-03    0.149E-02
DAV:   5    -0.137927402153E+04    0.20773E-05   -0.24894E-05  4960   0.331E-03    0.297E-03
DAV:   6    -0.137927402165E+04   -0.12480E-06   -0.18311E-06  5120   0.100E-03    0.126E-03
DAV:   7    -0.137927402187E+04   -0.21303E-06   -0.31995E-07  4736   0.438E-04    0.893E-04
DAV:   8    -0.137927402218E+04   -0.31569E-06   -0.65818E-08  4000   0.227E-04    0.297E-04
DAV:   9    -0.137927402243E+04   -0.25354E-06   -0.26988E-08  3808   0.127E-04    0.210E-04
DAV:  10    -0.137927402274E+04   -0.30098E-06   -0.11038E-08  3584   0.109E-04    0.104E-04
DAV:  11    -0.137927402297E+04   -0.23568E-06   -0.13106E-08  3824   0.969E-05    0.740E-05
DAV:  12    -0.137927402313E+04   -0.16035E-06   -0.65277E-09  3296   0.795E-05    0.459E-05
DAV:  13    -0.137927402322E+04   -0.90862E-07   -0.44897E-09  3136   0.693E-05    0.362E-05
DAV:  14    -0.137927402327E+04   -0.51514E-07   -0.33036E-09  3072   0.697E-05    0.217E-05
DAV:  15    -0.137927402331E+04   -0.31199E-07   -0.29858E-09  3072   0.608E-05    0.196E-05
DAV:  16    -0.137927402331E+04   -0.76252E-08   -0.11361E-09  2944   0.370E-05
  32 F= -.13987691E+04 E0= -.13987691E+04  d E =-.115977E-02  mag=    -0.0000
       N       E                     dE             d eps       ncg     rms          rms(c)
DAV:   1    -0.137927319824E+04    0.82507E-03   -0.78639E-02  4480   0.189E-01    0.115E-01
DAV:   2    -0.137927308169E+04    0.11655E-03   -0.96997E-04  4864   0.227E-02    0.651E-02
DAV:   3    -0.137927305700E+04    0.24690E-04   -0.51990E-04  5008   0.141E-02    0.216E-02
DAV:   4    -0.137927304780E+04    0.91995E-05   -0.55064E-05  4672   0.487E-03    0.136E-02
DAV:   5    -0.137927304725E+04    0.55788E-06   -0.15590E-05  5696   0.269E-03    0.301E-03
DAV:   6    -0.137927304734E+04   -0.93743E-07   -0.14090E-06  4800   0.893E-04    0.112E-03
DAV:   7    -0.137927304766E+04   -0.32480E-06   -0.32398E-07  5248   0.412E-04    0.865E-04
DAV:   8    -0.137927304793E+04   -0.27081E-06   -0.32441E-08  3936   0.167E-04    0.412E-04
DAV:   9    -0.137927304829E+04   -0.35074E-06   -0.34531E-08  3904   0.139E-04    0.201E-04
DAV:  10    -0.137927304851E+04   -0.22903E-06   -0.77441E-09  3296   0.961E-05    0.135E-04
DAV:  11    -0.137927304876E+04   -0.24293E-06   -0.11196E-08  3584   0.110E-04    0.690E-05
DAV:  12    -0.137927304895E+04   -0.19127E-06   -0.96820E-09  3328   0.107E-04    0.726E-05
DAV:  13    -0.137927304906E+04   -0.10710E-06   -0.48446E-09  3200   0.748E-05    0.410E-05
DAV:  14    -0.137927304913E+04   -0.79017E-07   -0.40403E-09  3232   0.630E-05    0.237E-05
DAV:  15    -0.137927304918E+04   -0.47119E-07   -0.22081E-09  3072   0.515E-05    0.191E-05
DAV:  16    -0.137927304921E+04   -0.27256E-07   -0.11482E-09  3072   0.363E-05    0.101E-05
DAV:  17    -0.137927304922E+04   -0.15003E-07   -0.49904E-10  3072   0.247E-05    0.650E-06
DAV:  18    -0.137927304923E+04   -0.92696E-08   -0.14427E-10  3072   0.167E-05
  33 F= -.13987681E+04 E0= -.13987681E+04  d E =0.957715E-03  mag=     0.0000
       N       E                     dE             d eps       ncg     rms          rms(c)
DAV:   1    -0.137927375031E+04   -0.70108E-03   -0.71472E-02  4416   0.185E-01    0.760E-02
DAV:   2    -0.137927376895E+04   -0.18649E-04   -0.43836E-04  4736   0.139E-02    0.458E-02
DAV:   3    -0.137927377193E+04   -0.29758E-05   -0.81500E-05  5344   0.577E-03    0.701E-03
DAV:   4    -0.137927377135E+04    0.57821E-06   -0.68565E-06  4576   0.183E-03    0.412E-03
DAV:   5    -0.137927377145E+04   -0.99317E-07   -0.36186E-06  4864   0.133E-03    0.119E-03
DAV:   6    -0.137927377173E+04   -0.27880E-06   -0.40963E-07  4768   0.494E-04    0.735E-04
DAV:   7    -0.137927377208E+04   -0.35348E-06   -0.70480E-08  3968   0.210E-04    0.316E-04
DAV:   8    -0.137927377248E+04   -0.39311E-06   -0.24453E-08  3840   0.118E-04    0.192E-04
DAV:   9    -0.137927377294E+04   -0.46166E-06   -0.18225E-08  3776   0.110E-04    0.102E-04
DAV:  10    -0.137927377327E+04   -0.32765E-06   -0.12269E-08  3584   0.887E-05    0.759E-05
DAV:  11    -0.137927377348E+04   -0.20963E-06   -0.71867E-09  3328   0.833E-05    0.490E-05
DAV:  12    -0.137927377361E+04   -0.13645E-06   -0.59258E-09  3328   0.829E-05    0.349E-05
DAV:  13    -0.137927377369E+04   -0.82102E-07   -0.43794E-09  3136   0.778E-05    0.238E-05
DAV:  14    -0.137927377373E+04   -0.38766E-07   -0.28918E-09  3072   0.622E-05    0.154E-05
DAV:  15    -0.137927377375E+04   -0.12005E-07   -0.11902E-09  3072   0.354E-05    0.115E-05
DAV:  16    -0.137927377376E+04   -0.10827E-07   -0.67873E-10  3008   0.285E-05    0.830E-06
DAV:  17    -0.137927377376E+04   -0.17899E-08   -0.28017E-10  3072   0.197E-05
  34 F= -.13987687E+04 E0= -.13987687E+04  d E =-.570160E-03  mag=    -0.0000
       N       E                     dE             d eps       ncg     rms          rms(c)
DAV:   1    -0.137927396924E+04   -0.19549E-03   -0.74517E-02  4992   0.206E-01    0.902E-02
DAV:   2    -0.137927397406E+04   -0.48166E-05   -0.83525E-04  5632   0.209E-02    0.552E-02
DAV:   3    -0.137927396437E+04    0.96892E-05   -0.31955E-04  5440   0.125E-02    0.161E-02
DAV:   4    -0.137927395951E+04    0.48627E-05   -0.42113E-05  4736   0.432E-03    0.112E-02
DAV:   5    -0.137927395794E+04    0.15710E-05   -0.15231E-05  4704   0.256E-03    0.282E-03
DAV:   6    -0.137927395804E+04   -0.10458E-06   -0.13875E-06  4800   0.791E-04    0.111E-03
DAV:   7    -0.137927395814E+04   -0.10319E-06   -0.37145E-07  4512   0.427E-04    0.694E-04
DAV:   8    -0.137927395831E+04   -0.16582E-06   -0.70738E-08  3968   0.214E-04    0.312E-04
DAV:   9    -0.137927395845E+04   -0.14306E-06   -0.30886E-08  3808   0.128E-04    0.174E-04
DAV:  10    -0.137927395861E+04   -0.15328E-06   -0.67879E-09  3296   0.754E-05    0.910E-05
DAV:  11    -0.137927395872E+04   -0.11260E-06   -0.45734E-09  3232   0.602E-05    0.626E-05
DAV:  12    -0.137927395884E+04   -0.12261E-06   -0.74527E-09  3424   0.869E-05    0.363E-05
DAV:  13    -0.137927395889E+04   -0.51092E-07   -0.36804E-09  3072   0.903E-05    0.291E-05
DAV:  14    -0.137927395893E+04   -0.34692E-07   -0.23762E-09  3072   0.678E-05    0.212E-05
DAV:  15    -0.137927395896E+04   -0.30806E-07   -0.16212E-09  3040   0.462E-05    0.155E-05
DAV:  16    -0.137927395897E+04   -0.15702E-07   -0.82031E-10  3072   0.325E-05    0.990E-06
DAV:  17    -0.137927395898E+04   -0.10536E-07   -0.44136E-10  3072   0.237E-05    0.113E-05
DAV:  18    -0.137927395899E+04   -0.47003E-08   -0.19338E-10  3072   0.158E-05
  35 F= -.13987691E+04 E0= -.13987691E+04  d E =-.373132E-03  mag=     0.0000
       N       E                     dE             d eps       ncg     rms          rms(c)
DAV:   1    -0.137927372517E+04    0.23382E-03   -0.72824E-02  5024   0.196E-01    0.785E-02
DAV:   2    -0.137927374261E+04   -0.17446E-04   -0.46955E-04  5472   0.155E-02    0.471E-02
DAV:   3    -0.137927373985E+04    0.27570E-05   -0.80047E-05  5344   0.654E-03    0.625E-03
DAV:   4    -0.137927373985E+04    0.84401E-08   -0.79661E-06  5216   0.206E-03    0.358E-03
DAV:   5    -0.137927373970E+04    0.14344E-06   -0.25936E-06  4800   0.125E-03    0.119E-03
DAV:   6    -0.137927373974E+04   -0.40047E-07   -0.33218E-07  4736   0.544E-04    0.653E-04
DAV:   7    -0.137927373982E+04   -0.76951E-07   -0.51219E-08  4096   0.228E-04    0.249E-04
DAV:   8    -0.137927373991E+04   -0.93016E-07   -0.14698E-08  3520   0.123E-04    0.152E-04
DAV:   9    -0.137927374000E+04   -0.89713E-07   -0.45416E-09  3232   0.899E-05    0.809E-05
DAV:  10    -0.137927374011E+04   -0.10393E-06   -0.62215E-09  3392   0.887E-05    0.576E-05
DAV:  11    -0.137927374015E+04   -0.45897E-07   -0.21444E-09  2944   0.650E-05    0.482E-05
DAV:  12    -0.137927374021E+04   -0.61380E-07   -0.30555E-09  3136   0.689E-05    0.305E-05
DAV:  13    -0.137927374024E+04   -0.29919E-07   -0.19122E-09  3072   0.658E-05    0.308E-05
DAV:  14    -0.137927374026E+04   -0.19849E-07   -0.96194E-10  3072   0.431E-05    0.175E-05
DAV:  15    -0.137927374029E+04   -0.28944E-07   -0.11989E-09  3072   0.398E-05    0.304E-05
DAV:  16    -0.137927374030E+04   -0.83237E-08   -0.39096E-10  3008   0.281E-05
  36 F= -.13987688E+04 E0= -.13987688E+04  d E =0.269476E-03  mag=    -0.0000
       N       E                     dE             d eps       ncg     rms          rms(c)
DAV:   1    -0.137927333948E+04    0.40081E-03   -0.84032E-02  4992   0.208E-01    0.137E-01
DAV:   2    -0.137927314566E+04    0.19382E-03   -0.15742E-03  5312   0.307E-02    0.776E-02
DAV:   3    -0.137927310166E+04    0.44008E-04   -0.87826E-04  5344   0.204E-02    0.277E-02
DAV:   4    -0.137927308557E+04    0.16086E-04   -0.10430E-04  5312   0.696E-03    0.167E-02
DAV:   5    -0.137927308442E+04    0.11459E-05   -0.22379E-05  6016   0.346E-03    0.393E-03
DAV:   6    -0.137927308406E+04    0.36262E-06   -0.25914E-06  5088   0.137E-03    0.127E-03
DAV:   7    -0.137927308403E+04    0.26892E-07   -0.33493E-07  4944   0.470E-04    0.994E-04
DAV:   8    -0.137927308404E+04   -0.66066E-08   -0.58228E-08  4256   0.313E-04
  37 F= -.13987680E+04 E0= -.13987680E+04  d E =0.778832E-03  mag=    -0.0000
       N       E                     dE             d eps       ncg     rms          rms(c)
DAV:   1    -0.137927400504E+04   -0.92101E-03   -0.78521E-02  5120   0.210E-01    0.112E-01
DAV:   2    -0.137927393604E+04    0.69006E-04   -0.12089E-03  5312   0.270E-02    0.668E-02
DAV:   3    -0.137927390805E+04    0.27989E-04   -0.65562E-04  5600   0.183E-02    0.245E-02
DAV:   4    -0.137927389647E+04    0.11574E-04   -0.80701E-05  5408   0.617E-03    0.157E-02
DAV:   5    -0.137927389396E+04    0.25104E-05   -0.24823E-05  5472   0.341E-03    0.388E-03
DAV:   6    -0.137927389379E+04    0.17676E-06   -0.27395E-06  4928   0.134E-03    0.137E-03
DAV:   7    -0.137927389387E+04   -0.82218E-07   -0.31141E-07  5376   0.474E-04    0.103E-03
DAV:   8    -0.137927389397E+04   -0.10441E-06   -0.73117E-08  4256   0.325E-04    0.403E-04
DAV:   9    -0.137927389406E+04   -0.89887E-07   -0.40998E-08  4320   0.251E-04    0.221E-04
DAV:  10    -0.137927389414E+04   -0.72032E-07   -0.78773E-09  3424   0.133E-04    0.154E-04
DAV:  11    -0.137927389423E+04   -0.90120E-07   -0.56744E-09  3280   0.132E-04    0.859E-05
DAV:  12    -0.137927389432E+04   -0.94253E-07   -0.11468E-08  3552   0.190E-04    0.591E-05
DAV:  13    -0.137927389437E+04   -0.53755E-07   -0.12518E-08  3776   0.212E-04    0.557E-05
DAV:  14    -0.137927389440E+04   -0.26892E-07   -0.46654E-09  3200   0.133E-04    0.277E-05
DAV:  15    -0.137927389444E+04   -0.36423E-07   -0.20166E-09  3008   0.619E-05    0.276E-05
DAV:  16    -0.137927389445E+04   -0.12937E-07   -0.80760E-10  3072   0.416E-05    0.212E-05
DAV:  17    -0.137927389446E+04   -0.10419E-07   -0.49303E-10  3056   0.311E-05    0.125E-05
DAV:  18    -0.137927389447E+04   -0.55443E-08   -0.22541E-10  3056   0.236E-05
  38 F= -.13987689E+04 E0= -.13987689E+04  d E =-.933377E-03  mag=     0.0000
       N       E                     dE             d eps       ncg     rms          rms(c)
DAV:   1    -0.137927365416E+04    0.24030E-03   -0.72736E-02  5088   0.191E-01    0.801E-02
DAV:   2    -0.137927366638E+04   -0.12217E-04   -0.48534E-04  5296   0.153E-02    0.479E-02
DAV:   3    -0.137927366220E+04    0.41719E-05   -0.10295E-04  5616   0.712E-03    0.796E-03
DAV:   4    -0.137927366143E+04    0.77569E-06   -0.10660E-05  4992   0.229E-03    0.462E-03
DAV:   5    -0.137927366124E+04    0.18951E-06   -0.42944E-06  4912   0.143E-03    0.129E-03
DAV:   6    -0.137927366127E+04   -0.30792E-07   -0.44984E-07  4544   0.554E-04    0.737E-04
DAV:   7    -0.137927366134E+04   -0.66429E-07   -0.69214E-08  4064   0.223E-04    0.256E-04
DAV:   8    -0.137927366141E+04   -0.70489E-07   -0.12759E-08  3360   0.948E-05    0.142E-04
DAV:   9    -0.137927366149E+04   -0.84226E-07   -0.50236E-09  3200   0.846E-05    0.697E-05
DAV:  10    -0.137927366155E+04   -0.59037E-07   -0.32695E-09  3168   0.671E-05    0.399E-05
DAV:  11    -0.137927366160E+04   -0.47017E-07   -0.26913E-09  3072   0.633E-05    0.291E-05
DAV:  12    -0.137927366163E+04   -0.35245E-07   -0.23432E-09  3072   0.626E-05    0.222E-05
DAV:  13    -0.137927366165E+04   -0.21886E-07   -0.14164E-09  3072   0.488E-05    0.129E-05
DAV:  14    -0.137927366168E+04   -0.22483E-07   -0.96083E-10  3008   0.316E-05    0.111E-05
DAV:  15    -0.137927366168E+04   -0.82073E-08   -0.30897E-10  3072   0.206E-05
  39 F= -.13987686E+04 E0= -.13987686E+04  d E =0.288100E-03  mag=    -0.0000
       N       E                     dE             d eps       ncg     rms          rms(c)
DAV:   1    -0.137927342055E+04    0.24113E-03   -0.83935E-02  5120   0.203E-01    0.137E-01
DAV:   2    -0.137927322525E+04    0.19530E-03   -0.14194E-03  5440   0.286E-02    0.763E-02
DAV:   3    -0.137927317926E+04    0.45990E-04   -0.81098E-04  5536   0.184E-02    0.263E-02
DAV:   4    -0.137927316607E+04    0.13195E-04   -0.87796E-05  5152   0.619E-03    0.166E-02
DAV:   5    -0.137927316494E+04    0.11231E-05   -0.22057E-05  5600   0.313E-03    0.372E-03
DAV:   6    -0.137927316471E+04    0.23807E-06   -0.22974E-06  4896   0.112E-03    0.124E-03
DAV:   7    -0.137927316470E+04    0.22555E-08   -0.40617E-07  5152   0.437E-04    0.954E-04
DAV:   8    -0.137927316473E+04   -0.25233E-07   -0.32679E-08  3872   0.185E-04    0.409E-04
DAV:   9    -0.137927316476E+04   -0.27430E-07   -0.23364E-08  3744   0.143E-04    0.147E-04
DAV:  10    -0.137927316480E+04   -0.40061E-07   -0.43208E-09  3168   0.803E-05    0.985E-05
DAV:  11    -0.137927316484E+04   -0.39086E-07   -0.18590E-09  3072   0.585E-05    0.609E-05
DAV:  12    -0.137927316489E+04   -0.50873E-07   -0.32022E-09  3200   0.731E-05    0.402E-05
DAV:  13    -0.137927316492E+04   -0.31083E-07   -0.22383E-09  3072   0.615E-05    0.468E-05
DAV:  14    -0.137927316494E+04   -0.23778E-07   -0.19496E-09  3072   0.529E-05    0.291E-05
DAV:  15    -0.137927316496E+04   -0.14115E-07   -0.11634E-09  3072   0.383E-05    0.215E-05
DAV:  16    -0.137927316496E+04   -0.89640E-08   -0.64678E-10  3072   0.285E-05
  40 F= -.13987679E+04 E0= -.13987679E+04  d E =0.796335E-03  mag=     0.0000
       N       E                     dE             d eps       ncg     rms          rms(c)
DAV:   1    -0.137927393382E+04   -0.76887E-03   -0.77882E-02  5088   0.191E-01    0.110E-01
DAV:   2    -0.137927386454E+04    0.69283E-04   -0.10786E-03  5344   0.247E-02    0.659E-02
DAV:   3    -0.137927383880E+04    0.25739E-04   -0.64312E-04  5280   0.169E-02    0.234E-02
DAV:   4    -0.137927382806E+04    0.10741E-04   -0.74565E-05  5024   0.569E-03    0.150E-02
DAV:   5    -0.137927382648E+04    0.15825E-05   -0.23949E-05  5152   0.307E-03    0.359E-03
DAV:   6    -0.137927382648E+04   -0.97498E-09   -0.22049E-06  5056   0.105E-03    0.122E-03
DAV:   7    -0.137927382671E+04   -0.23592E-06   -0.41079E-07  4992   0.457E-04    0.852E-04
DAV:   8    -0.137927382697E+04   -0.25555E-06   -0.54062E-08  3776   0.201E-04    0.355E-04
DAV:   9    -0.137927382717E+04   -0.19856E-06   -0.22493E-08  3760   0.126E-04    0.143E-04
DAV:  10    -0.137927382736E+04   -0.19108E-06   -0.77740E-09  3296   0.987E-05    0.880E-05
DAV:  11    -0.137927382749E+04   -0.13299E-06   -0.54384E-09  3104   0.866E-05    0.733E-05
DAV:  12    -0.137927382761E+04   -0.12074E-06   -0.76254E-09  3360   0.110E-04    0.395E-05
DAV:  13    -0.137927382768E+04   -0.67215E-07   -0.57382E-09  3168   0.104E-04    0.435E-05
DAV:  14    -0.137927382771E+04   -0.29671E-07   -0.24143E-09  3072   0.618E-05    0.283E-05
DAV:  15    -0.137927382775E+04   -0.41968E-07   -0.24401E-09  3008   0.491E-05    0.280E-05
DAV:  16    -0.137927382776E+04   -0.53842E-08   -0.80564E-10  3072   0.348E-05
  41 F= -.13987688E+04 E0= -.13987688E+04  d E =-.983085E-03  mag=    -0.0000
       N       E                     dE             d eps       ncg     rms          rms(c)
DAV:   1    -0.137927335890E+04    0.46885E-03   -0.73860E-02  5024   0.162E-01    0.949E-02
DAV:   2    -0.137927332831E+04    0.30591E-04   -0.63363E-04  5248   0.162E-02    0.556E-02
DAV:   3    -0.137927332356E+04    0.47543E-05   -0.16194E-04  5760   0.891E-03    0.126E-02
DAV:   4    -0.137927332122E+04    0.23379E-05   -0.20732E-05  5632   0.337E-03    0.589E-03
DAV:   5    -0.137927332196E+04   -0.74168E-06   -0.36154E-06  5632   0.142E-03    0.168E-03
DAV:   6    -0.137927332238E+04   -0.41889E-06   -0.27039E-07  4992   0.489E-04    0.914E-04
DAV:   7    -0.137927332284E+04   -0.45366E-06   -0.73374E-08  4384   0.223E-04    0.353E-04
DAV:   8    -0.137927332332E+04   -0.48142E-06   -0.31678E-08  3776   0.139E-04    0.216E-04
DAV:   9    -0.137927332365E+04   -0.32998E-06   -0.92714E-09  3392   0.792E-05    0.123E-04
DAV:  10    -0.137927332410E+04   -0.44992E-06   -0.21010E-08  4032   0.929E-05    0.823E-05
DAV:  11    -0.137927332433E+04   -0.23161E-06   -0.62109E-09  3296   0.737E-05    0.588E-05
DAV:  12    -0.137927332448E+04   -0.15111E-06   -0.45909E-09  3168   0.703E-05    0.370E-05
DAV:  13    -0.137927332459E+04   -0.10894E-06   -0.40819E-09  3136   0.669E-05    0.306E-05
DAV:  14    -0.137927332466E+04   -0.70169E-07   -0.31376E-09  3072   0.516E-05    0.190E-05
DAV:  15    -0.137927332470E+04   -0.36176E-07   -0.17198E-09  3072   0.418E-05    0.125E-05
DAV:  16    -0.137927332471E+04   -0.18103E-07   -0.87877E-10  3072   0.295E-05    0.116E-05
DAV:  17    -0.137927332472E+04   -0.65484E-08   -0.24547E-10  3072   0.181E-05
  42 F= -.13987683E+04 E0= -.13987683E+04  d E =0.504865E-03  mag=     0.0000
       N       E                     dE             d eps       ncg     rms          rms(c)
DAV:   1    -0.137927329882E+04    0.25890E-04   -0.84424E-02  5184   0.170E-01    0.143E-01
DAV:   2    -0.137927306183E+04    0.23700E-03   -0.17024E-03  5184   0.303E-02    0.785E-02
DAV:   3    -0.137927301896E+04    0.42870E-04   -0.58115E-04  5568   0.156E-02    0.269E-02
DAV:   4    -0.137927300840E+04    0.10554E-04   -0.79580E-05  5792   0.637E-03    0.128E-02
DAV:   5    -0.137927300938E+04   -0.97102E-06   -0.81527E-06  5024   0.220E-03    0.349E-03
DAV:   6    -0.137927300948E+04   -0.10026E-06   -0.15098E-06  5568   0.910E-04    0.173E-03
DAV:   7    -0.137927300970E+04   -0.22494E-06   -0.30266E-07  5024   0.427E-04    0.684E-04
DAV:   8    -0.137927301001E+04   -0.31425E-06   -0.82232E-08  4544   0.200E-04    0.296E-04
DAV:   9    -0.137927301018E+04   -0.16966E-06   -0.12548E-08  3360   0.933E-05    0.192E-04
DAV:  10    -0.137927301043E+04   -0.25051E-06   -0.11699E-08  3520   0.791E-05    0.112E-04
DAV:  11    -0.137927301060E+04   -0.16546E-06   -0.40276E-09  3200   0.526E-05    0.629E-05
DAV:  12    -0.137927301075E+04   -0.15387E-06   -0.49912E-09  3232   0.538E-05    0.478E-05
DAV:  13    -0.137927301087E+04   -0.11995E-06   -0.38961E-09  3168   0.562E-05    0.358E-05
DAV:  14    -0.137927301094E+04   -0.64567E-07   -0.24823E-09  3008   0.495E-05    0.222E-05
DAV:  15    -0.137927301098E+04   -0.43423E-07   -0.17245E-09  3008   0.394E-05    0.114E-05
DAV:  16    -0.137927301101E+04   -0.27139E-07   -0.95874E-10  3008   0.289E-05    0.102E-05
DAV:  17    -0.137927301102E+04   -0.11409E-07   -0.33371E-10  3072   0.209E-05    0.886E-06
DAV:  18    -0.137927301103E+04   -0.57771E-08   -0.89894E-11  3008   0.151E-05
  43 F= -.13987680E+04 E0= -.13987680E+04  d E =0.330601E-03  mag=    -0.0000
       N       E                     dE             d eps       ncg     rms          rms(c)
DAV:   1    -0.137927427583E+04   -0.12648E-02   -0.75669E-02  5056   0.182E-01    0.105E-01
DAV:   2    -0.137927423313E+04    0.42698E-04   -0.12757E-03  5664   0.242E-02    0.625E-02
DAV:   3    -0.137927419645E+04    0.36677E-04   -0.34072E-04  5760   0.160E-02    0.203E-02
DAV:   4    -0.137927419006E+04    0.63867E-05   -0.45311E-05  5920   0.605E-03    0.959E-03
DAV:   5    -0.137927419028E+04   -0.21371E-06   -0.73700E-06  5664   0.275E-03    0.361E-03
DAV:   6    -0.137927419015E+04    0.12458E-06   -0.10263E-06  6144   0.127E-03    0.161E-03
DAV:   7    -0.137927419018E+04   -0.28318E-07   -0.22812E-07  5536   0.617E-04    0.659E-04
DAV:   8    -0.137927419027E+04   -0.89276E-07   -0.66548E-08  5248   0.406E-04    0.358E-04
DAV:   9    -0.137927419039E+04   -0.11855E-06   -0.17727E-08  3680   0.254E-04    0.198E-04
DAV:  10    -0.137927419051E+04   -0.12419E-06   -0.17648E-08  3744   0.221E-04    0.125E-04
DAV:  11    -0.137927419063E+04   -0.11339E-06   -0.10745E-08  3552   0.163E-04    0.835E-05
DAV:  12    -0.137927419073E+04   -0.99040E-07   -0.60652E-09  3216   0.122E-04    0.534E-05
DAV:  13    -0.137927419079E+04   -0.62573E-07   -0.49795E-09  3200   0.841E-05    0.372E-05
DAV:  14    -0.137927419083E+04   -0.40905E-07   -0.30592E-09  3072   0.597E-05    0.200E-05
DAV:  15    -0.137927419085E+04   -0.25815E-07   -0.20194E-09  3072   0.486E-05    0.184E-05
DAV:  16    -0.137927419087E+04   -0.14843E-07   -0.13487E-09  3072   0.428E-05    0.122E-05
DAV:  17    -0.137927419088E+04   -0.64465E-08   -0.76735E-10  3072   0.334E-05
  44 F= -.13987692E+04 E0= -.13987692E+04  d E =-.116239E-02  mag=    -0.0000
       N       E                     dE             d eps       ncg     rms          rms(c)
DAV:   1    -0.137927414473E+04    0.46138E-04   -0.68341E-02  5056   0.156E-01    0.723E-02
DAV:   2    -0.137927407712E+04    0.67607E-04   -0.60447E-04  5536   0.154E-02    0.396E-02
DAV:   3    -0.137927403902E+04    0.38109E-04   -0.11957E-04  6400   0.985E-03    0.122E-02
DAV:   4    -0.137927403489E+04    0.41230E-05   -0.16289E-05  5824   0.396E-03    0.406E-03
DAV:   5    -0.137927403474E+04    0.15137E-06   -0.23532E-06  5440   0.156E-03    0.189E-03
DAV:   6    -0.137927403527E+04   -0.53264E-06   -0.34521E-07  6016   0.727E-04    0.111E-03
DAV:   7    -0.137927403610E+04   -0.82544E-06   -0.10487E-07  5312   0.425E-04    0.577E-04
[...]
DAV:   9    -0.137927148848E+04   -0.75859E-06   -0.24051E-08  3824   0.141E-04    0.195E-04
DAV:  10    -0.137927148938E+04   -0.89734E-06   -0.33833E-08  4032   0.148E-04    0.124E-04
DAV:  11    -0.137927149003E+04   -0.65379E-06   -0.23940E-08  4032   0.123E-04    0.859E-05
DAV:  12    -0.137927149040E+04   -0.36210E-06   -0.80051E-09  3456   0.704E-05    0.600E-05
DAV:  13    -0.137927149068E+04   -0.28551E-06   -0.71143E-09  3488   0.636E-05    0.351E-05
DAV:  14    -0.137927149080E+04   -0.11912E-06   -0.28351E-09  3072   0.564E-05    0.242E-05
DAV:  15    -0.137927149087E+04   -0.70155E-07   -0.21491E-09  3072   0.457E-05    0.163E-05
DAV:  16    -0.137927149091E+04   -0.42201E-07   -0.13766E-09  3072   0.401E-05    0.114E-05
DAV:  17    -0.137927149093E+04   -0.20256E-07   -0.74637E-10  3072   0.289E-05    0.748E-06
DAV:  18    -0.137927149094E+04   -0.91532E-08   -0.30768E-10  3072   0.234E-05
  60 F= -.13987666E+04 E0= -.13987666E+04  d E =0.523477E-03  mag=    -0.0000
       N       E                     dE             d eps       ncg     rms          rms(c)
DAV:   1    -0.137927200035E+04   -0.50942E-03   -0.48849E-01  4832   0.567E-01    0.138E-01
DAV:   2    -0.137927208930E+04   -0.88955E-04   -0.37384E-03  5184   0.478E-02    0.873E-02
DAV:   3    -0.137927198641E+04    0.10289E-03   -0.56772E-04  5376   0.184E-02    0.233E-02
DAV:   4    -0.137927199440E+04   -0.79854E-05   -0.11505E-04  5984   0.563E-03    0.107E-02
DAV:   5    -0.137927199310E+04    0.12992E-05   -0.15915E-05  5408   0.289E-03    0.437E-03
DAV:   6    -0.137927199352E+04   -0.42305E-06   -0.14918E-06  5120   0.991E-04    0.199E-03
DAV:   7    -0.137927199375E+04   -0.22567E-06   -0.51413E-07  4384   0.751E-04    0.471E-04
DAV:   8    -0.137927199395E+04   -0.20173E-06   -0.15872E-07  5088   0.358E-04    0.429E-04
DAV:   9    -0.137927199414E+04   -0.19012E-06   -0.19065E-08  3712   0.165E-04    0.185E-04
DAV:  10    -0.137927199434E+04   -0.20447E-06   -0.12242E-08  3600   0.173E-04    0.110E-04
DAV:  11    -0.137927199450E+04   -0.15720E-06   -0.88184E-09  3504   0.137E-04    0.818E-05
DAV:  12    -0.137927199460E+04   -0.10390E-06   -0.41467E-09  3136   0.918E-05    0.455E-05
DAV:  13    -0.137927199471E+04   -0.10923E-06   -0.43361E-09  3104   0.859E-05    0.319E-05
DAV:  14    -0.137927199477E+04   -0.57276E-07   -0.29852E-09  3072   0.701E-05    0.272E-05
DAV:  15    -0.137927199481E+04   -0.39741E-07   -0.16678E-09  3072   0.488E-05    0.169E-05
DAV:  16    -0.137927199484E+04   -0.32756E-07   -0.10278E-09  3072   0.363E-05    0.107E-05
DAV:  17    -0.137927199486E+04   -0.13650E-07   -0.49033E-10  3072   0.266E-05    0.946E-06
DAV:  18    -0.137927199487E+04   -0.97498E-08   -0.12377E-10  3072   0.199E-05
  61 F= -.13987667E+04 E0= -.13987667E+04  d E =-.119099E-03  mag=    -0.0000
       N       E                     dE             d eps       ncg     rms          rms(c)
DAV:   1    -0.137927208662E+04   -0.91761E-04   -0.48703E-01  5056   0.561E-01    0.142E-01
DAV:   2    -0.137927226956E+04   -0.18294E-03   -0.48641E-03  5312   0.526E-02    0.890E-02
DAV:   3    -0.137927214987E+04    0.11969E-03   -0.59884E-04  5600   0.184E-02    0.325E-02
DAV:   4    -0.137927215755E+04   -0.76823E-05   -0.15050E-04  5504   0.722E-03    0.118E-02
DAV:   5    -0.137927215593E+04    0.16210E-05   -0.15476E-05  5824   0.289E-03    0.538E-03
DAV:   6    -0.137927215623E+04   -0.29842E-06   -0.32404E-06  5472   0.121E-03    0.188E-03
DAV:   7    -0.137927215651E+04   -0.28031E-06   -0.34517E-07  4896   0.585E-04    0.777E-04
DAV:   8    -0.137927215684E+04   -0.33109E-06   -0.11644E-07  4704   0.271E-04    0.362E-04
DAV:   9    -0.137927215713E+04   -0.28685E-06   -0.17346E-08  3680   0.129E-04    0.198E-04
DAV:  10    -0.137927215754E+04   -0.40708E-06   -0.15708E-08  3840   0.119E-04    0.114E-04
DAV:  11    -0.137927215795E+04   -0.41105E-06   -0.15242E-08  3712   0.109E-04    0.723E-05
DAV:  12    -0.137927215819E+04   -0.24549E-06   -0.74422E-09  3392   0.743E-05    0.611E-05
DAV:  13    -0.137927215841E+04   -0.21479E-06   -0.75609E-09  3440   0.738E-05    0.366E-05
DAV:  14    -0.137927215853E+04   -0.11815E-06   -0.45285E-09  3072   0.607E-05    0.282E-05
DAV:  15    -0.137927215859E+04   -0.64916E-07   -0.28448E-09  3072   0.492E-05    0.180E-05
DAV:  16    -0.137927215864E+04   -0.49957E-07   -0.21947E-09  3072   0.441E-05    0.135E-05
DAV:  17    -0.137927215866E+04   -0.16997E-07   -0.10827E-09  3072   0.343E-05    0.962E-06
DAV:  18    -0.137927215867E+04   -0.94296E-08   -0.43245E-10  3072   0.236E-05
  62 F= -.13987671E+04 E0= -.13987671E+04  d E =-.410873E-03  mag=     0.0000
       N       E                     dE             d eps       ncg     rms          rms(c)
DAV:   1    -0.137927179513E+04    0.36352E-03   -0.48112E-01  5120   0.516E-01    0.148E-01
DAV:   2    -0.137927173475E+04    0.60385E-04   -0.34957E-03  5248   0.444E-02    0.860E-02
DAV:   3    -0.137927161337E+04    0.12137E-03   -0.67262E-04  5504   0.194E-02    0.215E-02
DAV:   4    -0.137927161844E+04   -0.50671E-05   -0.11666E-04  5568   0.624E-03    0.103E-02
DAV:   5    -0.137927161786E+04    0.57729E-06   -0.12201E-05  6016   0.239E-03    0.447E-03
DAV:   6    -0.137927161806E+04   -0.19504E-06   -0.17752E-06  4992   0.101E-03    0.183E-03
DAV:   7    -0.137927161828E+04   -0.22087E-06   -0.30622E-07  5376   0.563E-04    0.754E-04
DAV:   8    -0.137927161855E+04   -0.27193E-06   -0.97647E-08  4512   0.325E-04    0.393E-04
DAV:   9    -0.137927161877E+04   -0.22051E-06   -0.28956E-08  3904   0.179E-04    0.189E-04
DAV:  10    -0.137927161897E+04   -0.19993E-06   -0.64226E-09  3360   0.107E-04    0.126E-04
DAV:  11    -0.137927161929E+04   -0.31425E-06   -0.15185E-08  3744   0.160E-04    0.795E-05
DAV:  12    -0.137927161944E+04   -0.15351E-06   -0.83243E-09  3488   0.100E-04    0.589E-05
DAV:  13    -0.137927161957E+04   -0.13303E-06   -0.48556E-09  3168   0.734E-05    0.385E-05
DAV:  14    -0.137927161964E+04   -0.65280E-07   -0.31417E-09  3072   0.510E-05    0.249E-05
DAV:  15    -0.137927161968E+04   -0.45111E-07   -0.21342E-09  3072   0.436E-05    0.154E-05
DAV:  16    -0.137927161971E+04   -0.28565E-07   -0.14665E-09  3072   0.403E-05    0.130E-05
DAV:  17    -0.137927161973E+04   -0.15512E-07   -0.92561E-10  3072   0.337E-05    0.915E-06
DAV:  18    -0.137927161973E+04   -0.58644E-08   -0.42393E-10  3072   0.233E-05
  63 F= -.13987667E+04 E0= -.13987667E+04  d E =0.377760E-03  mag=     0.0000
       N       E                     dE             d eps       ncg     rms          rms(c)
DAV:   1    -0.137927193142E+04   -0.31169E-03   -0.49029E-01  4992   0.532E-01    0.141E-01
DAV:   2    -0.137927194092E+04   -0.95021E-05   -0.32297E-03  5376   0.439E-02    0.860E-02
DAV:   3    -0.137927183976E+04    0.10116E-03   -0.59247E-04  5632   0.181E-02    0.204E-02
DAV:   4    -0.137927184641E+04   -0.66488E-05   -0.10843E-04  5632   0.535E-03    0.970E-03
DAV:   5    -0.137927184570E+04    0.71512E-06   -0.12272E-05  5440   0.236E-03    0.423E-03
DAV:   6    -0.137927184590E+04   -0.20779E-06   -0.12981E-06  5088   0.898E-04    0.188E-03
DAV:   7    -0.137927184603E+04   -0.12686E-06   -0.39756E-07  4864   0.615E-04    0.475E-04
DAV:   8    -0.137927184624E+04   -0.20645E-06   -0.10235E-07  4448   0.279E-04    0.377E-04
DAV:   9    -0.137927184643E+04   -0.18760E-06   -0.19515E-08  3632   0.137E-04    0.182E-04
DAV:  10    -0.137927184663E+04   -0.20670E-06   -0.97882E-09  3600   0.122E-04    0.950E-05
DAV:  11    -0.137927184683E+04   -0.19713E-06   -0.90189E-09  3584   0.116E-04    0.669E-05
DAV:  12    -0.137927184698E+04   -0.14664E-06   -0.57184E-09  3264   0.866E-05    0.442E-05
DAV:  13    -0.137927184712E+04   -0.14082E-06   -0.65722E-09  3424   0.807E-05    0.294E-05
DAV:  14    -0.137927184717E+04   -0.54773E-07   -0.28739E-09  3072   0.591E-05    0.238E-05
DAV:  15    -0.137927184721E+04   -0.33891E-07   -0.14619E-09  3072   0.380E-05    0.142E-05
DAV:  16    -0.137927184724E+04   -0.31490E-07   -0.11346E-09  3072   0.356E-05    0.102E-05
DAV:  17    -0.137927184725E+04   -0.10827E-07   -0.48238E-10  3072   0.263E-05    0.928E-06
DAV:  18    -0.137927184725E+04   -0.53551E-08   -0.14347E-10  3008   0.166E-05
  64 F= -.13987666E+04 E0= -.13987666E+04  d E =0.115549E-03  mag=     0.0000
       N       E                     dE             d eps       ncg     rms          rms(c)
DAV:   1    -0.137927160036E+04    0.24689E-03   -0.52464E-01  4992   0.546E-01    0.163E-01
DAV:   2    -0.137927171689E+04   -0.11653E-03   -0.53670E-03  5312   0.540E-02    0.103E-01
DAV:   3    -0.137927155595E+04    0.16094E-03   -0.98369E-04  5440   0.215E-02    0.292E-02
DAV:   4    -0.137927156228E+04   -0.63317E-05   -0.15732E-04  5888   0.683E-03    0.149E-02
DAV:   5    -0.137927156095E+04    0.13255E-05   -0.25134E-05  5824   0.342E-03    0.596E-03
DAV:   6    -0.137927156142E+04   -0.46374E-06   -0.31602E-06  5312   0.131E-03    0.255E-03
DAV:   7    -0.137927156202E+04   -0.59925E-06   -0.71160E-07  4992   0.708E-04    0.724E-04
DAV:   8    -0.137927156274E+04   -0.72361E-06   -0.21944E-07  5216   0.393E-04    0.546E-04
DAV:   9    -0.137927156345E+04   -0.70770E-06   -0.36149E-08  4032   0.216E-04    0.276E-04
DAV:  10    -0.137927156440E+04   -0.95434E-06   -0.59272E-08  4208   0.264E-04    0.177E-04
DAV:  11    -0.137927156480E+04   -0.40396E-06   -0.23667E-08  4064   0.151E-04    0.161E-04
DAV:  12    -0.137927156519E+04   -0.38905E-06   -0.11477E-08  3648   0.997E-05    0.932E-05
DAV:  13    -0.137927156559E+04   -0.39200E-06   -0.20711E-08  4096   0.108E-04    0.620E-05
DAV:  14    -0.137927156570E+04   -0.10994E-06   -0.30330E-09  3168   0.553E-05    0.564E-05
DAV:  15    -0.137927156577E+04   -0.72207E-07   -0.16894E-09  3072   0.356E-05    0.337E-05
DAV:  16    -0.137927156585E+04   -0.83863E-07   -0.20854E-09  3072   0.386E-05    0.142E-05
DAV:  17    -0.137927156590E+04   -0.46377E-07   -0.15292E-09  3072   0.353E-05    0.170E-05
DAV:  18    -0.137927156592E+04   -0.22686E-07   -0.82707E-10  3072   0.339E-05    0.116E-05
DAV:  19    -0.137927156593E+04   -0.12311E-07   -0.44704E-10  3072   0.257E-05    0.560E-06
DAV:  20    -0.137927156594E+04   -0.41618E-08   -0.36328E-11  2944   0.152E-05
  65 F= -.13987666E+04 E0= -.13987666E+04  d E =0.350878E-04  mag=    -0.0000
       N       E                     dE             d eps       ncg     rms          rms(c)
DAV:   1    -0.137927270172E+04   -0.11358E-02   -0.46048E-01  4992   0.517E-01    0.155E-01
DAV:   2    -0.137927272878E+04   -0.27054E-04   -0.35009E-03  5376   0.465E-02    0.903E-02
DAV:   3    -0.137927266103E+04    0.67744E-04   -0.64783E-04  5888   0.192E-02    0.252E-02
DAV:   4    -0.137927266206E+04   -0.10251E-05   -0.87296E-05  5824   0.625E-03    0.138E-02
DAV:   5    -0.137927266098E+04    0.10789E-05   -0.25312E-05  5824   0.406E-03    0.473E-03
DAV:   6    -0.137927266158E+04   -0.59653E-06   -0.31741E-06  5792   0.167E-03    0.217E-03
DAV:   7    -0.137927266240E+04   -0.82722E-06   -0.41008E-07  4736   0.747E-04    0.831E-04
DAV:   8    -0.137927266347E+04   -0.10664E-05   -0.19025E-07  5408   0.536E-04    0.502E-04
DAV:   9    -0.137927266449E+04   -0.10222E-05   -0.65327E-08  4480   0.349E-04    0.326E-04
DAV:  10    -0.137927266589E+04   -0.13955E-05   -0.84319E-08  4448   0.373E-04    0.183E-04
DAV:  11    -0.137927266657E+04   -0.67860E-06   -0.52520E-08  4624   0.230E-04    0.141E-04
DAV:  12    -0.137927266712E+04   -0.55287E-06   -0.16816E-08  3872   0.121E-04    0.879E-05
DAV:  13    -0.137927266756E+04   -0.44037E-06   -0.15423E-08  3904   0.832E-05    0.484E-05
DAV:  14    -0.137927266778E+04   -0.21599E-06   -0.40008E-09  3200   0.535E-05    0.326E-05
DAV:  15    -0.137927266792E+04   -0.14783E-06   -0.38270E-09  3168   0.577E-05    0.231E-05
DAV:  16    -0.137927266800E+04   -0.76849E-07   -0.24285E-09  3072   0.562E-05    0.151E-05
DAV:  17    -0.137927266804E+04   -0.38432E-07   -0.14597E-09  3072   0.402E-05    0.117E-05
DAV:  18    -0.137927266806E+04   -0.17593E-07   -0.69865E-10  3072   0.299E-05    0.778E-06
DAV:  19    -0.137927266807E+04   -0.10259E-07   -0.29657E-10  3072   0.212E-05    0.619E-06
DAV:  20    -0.137927266807E+04   -0.25611E-08   -0.85199E-12  3072   0.137E-05
  66 F= -.13987677E+04 E0= -.13987677E+04  d E =-.115033E-02  mag=    -0.0000
       N       E                     dE             d eps       ncg     rms          rms(c)
DAV:   1    -0.137927195043E+04    0.71764E-03   -0.49705E-01  4992   0.513E-01    0.161E-01
DAV:   2    -0.137927202065E+04   -0.70227E-04   -0.40312E-03  5536   0.465E-02    0.995E-02
DAV:   3    -0.137927190571E+04    0.11495E-03   -0.63572E-04  5472   0.180E-02    0.285E-02
DAV:   4    -0.137927191026E+04   -0.45522E-05   -0.11395E-04  6080   0.578E-03    0.125E-02
DAV:   5    -0.137927190880E+04    0.14561E-05   -0.21097E-05  5600   0.325E-03    0.487E-03
DAV:   6    -0.137927191066E+04   -0.18616E-05   -0.27216E-06  5120   0.128E-03    0.217E-03
DAV:   7    -0.137927191297E+04   -0.23090E-05   -0.59919E-07  4800   0.722E-04    0.838E-04
DAV:   8    -0.137927191550E+04   -0.25313E-05   -0.28189E-07  5408   0.400E-04    0.624E-04
DAV:   9    -0.137927191851E+04   -0.30029E-05   -0.12301E-07  4288   0.253E-04    0.339E-04
DAV:  10    -0.137927192135E+04   -0.28423E-05   -0.13108E-07  4384   0.227E-04    0.219E-04
DAV:  11    -0.137927192346E+04   -0.21066E-05   -0.10165E-07  4256   0.177E-04    0.146E-04
DAV:  12    -0.137927192454E+04   -0.10884E-05   -0.33573E-08  4192   0.101E-04    0.912E-05
DAV:  13    -0.137927192527E+04   -0.72920E-06   -0.18346E-08  3776   0.799E-05    0.563E-05
DAV:  14    -0.137927192563E+04   -0.35933E-06   -0.69176E-09  3200   0.678E-05    0.381E-05
DAV:  15    -0.137927192582E+04   -0.19078E-06   -0.42684E-09  3072   0.632E-05    0.282E-05
DAV:  16    -0.137927192595E+04   -0.12621E-06   -0.33646E-09  3072   0.563E-05    0.180E-05
DAV:  17    -0.137927192601E+04   -0.59415E-07   -0.20228E-09  3072   0.480E-05    0.116E-05
DAV:  18    -0.137927192603E+04   -0.21144E-07   -0.90343E-10  3072   0.374E-05    0.111E-05
DAV:  19    -0.137927192604E+04   -0.96043E-08   -0.29755E-10  3072   0.230E-05
  67 F= -.13987669E+04 E0= -.13987669E+04  d E =0.873163E-03  mag=     0.0000
       N       E                     dE             d eps       ncg     rms          rms(c)
DAV:   1    -0.137927082552E+04    0.11005E-02   -0.44928E-01  4992   0.511E-01    0.138E-01
DAV:   2    -0.137927088492E+04   -0.59403E-04   -0.39602E-03  5696   0.461E-02    0.857E-02
DAV:   3    -0.137927082702E+04    0.57905E-04   -0.64055E-04  5984   0.186E-02    0.306E-02
DAV:   4    -0.137927082375E+04    0.32700E-05   -0.12523E-04  5824   0.660E-03    0.130E-02
DAV:   5    -0.137927082628E+04   -0.25281E-05   -0.12702E-05  5520   0.250E-03    0.384E-03
DAV:   6    -0.137927082706E+04   -0.78544E-06   -0.15679E-06  4768   0.112E-03    0.212E-03
DAV:   7    -0.137927082835E+04   -0.12884E-05   -0.42238E-07  5056   0.510E-04    0.759E-04
DAV:   8    -0.137927082938E+04   -0.10326E-05   -0.15038E-07  5184   0.312E-04    0.398E-04
DAV:   9    -0.137927083029E+04   -0.90626E-06   -0.34685E-08  4160   0.185E-04    0.227E-04
DAV:  10    -0.137927083117E+04   -0.87968E-06   -0.32859E-08  4096   0.154E-04    0.127E-04
DAV:  11    -0.137927083189E+04   -0.72428E-06   -0.27979E-08  4032   0.131E-04    0.935E-05
DAV:  12    -0.137927083229E+04   -0.39655E-06   -0.10502E-08  3488   0.837E-05    0.689E-05
DAV:  13    -0.137927083259E+04   -0.30219E-06   -0.95718E-09  3456   0.749E-05    0.439E-05
DAV:  14    -0.137927083273E+04   -0.13616E-06   -0.38163E-09  3104   0.598E-05    0.280E-05
DAV:  15    -0.137927083281E+04   -0.84125E-07   -0.26027E-09  3072   0.488E-05    0.193E-05
DAV:  16    -0.137927083288E+04   -0.67681E-07   -0.24466E-09  3040   0.510E-05    0.160E-05
DAV:  17    -0.137927083290E+04   -0.16778E-07   -0.12597E-09  3072   0.430E-05    0.106E-05
DAV:  18    -0.137927083291E+04   -0.94878E-08   -0.52254E-10  3072   0.271E-05
  68 F= -.13987658E+04 E0= -.13987658E+04  d E =0.107743E-02  mag=     0.0000
       N       E                     dE             d eps       ncg     rms          rms(c)
DAV:   1    -0.137927248005E+04   -0.16472E-02   -0.49881E-01  5056   0.522E-01    0.148E-01
DAV:   2    -0.137927225351E+04    0.22654E-03   -0.35576E-03  5664   0.437E-02    0.852E-02
DAV:   3    -0.137927211415E+04    0.13936E-03   -0.73896E-04  5536   0.222E-02    0.246E-02
DAV:   4    -0.137927212270E+04   -0.85574E-05   -0.16192E-04  5920   0.804E-03    0.101E-02
DAV:   5    -0.137927212284E+04   -0.13872E-06   -0.11115E-05  5984   0.308E-03    0.479E-03
DAV:   6    -0.137927212289E+04   -0.46697E-07   -0.16717E-06  6176   0.151E-03    0.223E-03
DAV:   7    -0.137927212323E+04   -0.34286E-06   -0.34796E-07  5472   0.813E-04    0.929E-04
DAV:   8    -0.137927212380E+04   -0.56962E-06   -0.15937E-07  5504   0.569E-04    0.475E-04
DAV:   9    -0.137927212451E+04   -0.70842E-06   -0.50497E-08  4352   0.390E-04    0.296E-04
DAV:  10    -0.137927212544E+04   -0.92977E-06   -0.60780E-08  4736   0.413E-04    0.174E-04
DAV:  11    -0.137927212614E+04   -0.70369E-06   -0.59331E-08  4320   0.313E-04    0.123E-04
DAV:  12    -0.137927212659E+04   -0.44593E-06   -0.24154E-08  4128   0.164E-04    0.911E-05
DAV:  13    -0.137927212689E+04   -0.29676E-06   -0.70018E-09  3232   0.819E-05    0.498E-05
DAV:  14    -0.137927212711E+04   -0.22390E-06   -0.70281E-09  3392   0.654E-05    0.347E-05
DAV:  15    -0.137927212725E+04   -0.14421E-06   -0.38804E-09  3072   0.672E-05    0.227E-05
DAV:  16    -0.137927212734E+04   -0.88650E-07   -0.32775E-09  3072   0.596E-05    0.165E-05
DAV:  17    -0.137927212738E+04   -0.33338E-07   -0.13511E-09  3136   0.428E-05    0.110E-05
DAV:  18    -0.137927212741E+04   -0.31228E-07   -0.97024E-10  3072   0.346E-05    0.820E-06
DAV:  19    -0.137927212742E+04   -0.73196E-08   -0.33215E-10  3072   0.228E-05
  69 F= -.13987674E+04 E0= -.13987674E+04  d E =-.160148E-02  mag=     0.0000
       N       E                     dE             d eps       ncg     rms          rms(c)
DAV:   1    -0.137927310382E+04   -0.97641E-03   -0.50670E-01  5056   0.487E-01    0.163E-01
DAV:   2    -0.137927289719E+04    0.20663E-03   -0.37142E-03  5248   0.437E-02    0.959E-02
DAV:   3    -0.137927273234E+04    0.16486E-03   -0.83337E-04  5440   0.196E-02    0.261E-02
DAV:   4    -0.137927273733E+04   -0.49908E-05   -0.15322E-04  5760   0.620E-03    0.108E-02
DAV:   5    -0.137927273753E+04   -0.20051E-06   -0.11626E-05  6400   0.238E-03    0.436E-03
DAV:   6    -0.137927273791E+04   -0.37978E-06   -0.15319E-06  4896   0.105E-03    0.193E-03
DAV:   7    -0.137927273856E+04   -0.65604E-06   -0.37730E-07  5120   0.516E-04    0.677E-04
DAV:   8    -0.137927273942E+04   -0.85760E-06   -0.11891E-07  4480   0.267E-04    0.440E-04
DAV:   9    -0.137927274023E+04   -0.80912E-06   -0.31890E-08  3936   0.155E-04    0.244E-04
DAV:  10    -0.137927274145E+04   -0.12228E-05   -0.66752E-08  4192   0.185E-04    0.159E-04
DAV:  11    -0.137927274226E+04   -0.80907E-06   -0.40271E-08  4192   0.138E-04    0.114E-04
DAV:  12    -0.137927274274E+04   -0.47700E-06   -0.14575E-08  3520   0.895E-05    0.688E-05
DAV:  13    -0.137927274307E+04   -0.33266E-06   -0.10623E-08  3328   0.795E-05    0.446E-05
DAV:  14    -0.137927274324E+04   -0.17267E-06   -0.53722E-09  3072   0.745E-05    0.301E-05
DAV:  15    -0.137927274336E+04   -0.11644E-06   -0.40842E-09  3072   0.597E-05    0.179E-05
DAV:  16    -0.137927274343E+04   -0.70155E-07   -0.25745E-09  3072   0.561E-05    0.132E-05
DAV:  17    -0.137927274346E+04   -0.24345E-07   -0.14115E-09  3072   0.470E-05    0.910E-06
DAV:  18    -0.137927274347E+04   -0.14392E-07   -0.68769E-10  3072   0.320E-05    0.642E-06
DAV:  19    -0.137927274347E+04   -0.38708E-08   -0.18814E-10  3072   0.169E-05
  70 F= -.13987677E+04 E0= -.13987677E+04  d E =-.327510E-03  mag=     0.0000
