       N       E                     dE             d eps       ncg     rms          rms(c)
DAV:   1    -0.132154910554E+04   -0.13215E+04   -0.13033E+00  6304   0.972E-01    0.955E-01
DAV:   2    -0.132329378048E+04   -0.17447E+01   -0.11606E+00  6112   0.943E-01    0.405E-01
DAV:   3    -0.132330368596E+04   -0.99055E-02   -0.41545E-02  6848   0.225E-01    0.276E-01
DAV:   4    -0.132330372973E+04   -0.43767E-04   -0.20723E-03  5504   0.563E-02    0.224E-01
DAV:   5    -0.132330373989E+04   -0.10161E-04   -0.20072E-04  6912   0.180E-02    0.189E-01
DAV:   6    -0.132330375252E+04   -0.12630E-04   -0.21739E-05  7136   0.697E-03    0.164E-01
DAV:   7    -0.132330376229E+04   -0.97694E-05   -0.23641E-05  6720   0.826E-03    0.130E-01
DAV:   8    -0.132330376882E+04   -0.65282E-05   -0.16068E-05  6976   0.628E-03    0.107E-01
DAV:   9    -0.132330377385E+04   -0.50263E-05   -0.44849E-06  7264   0.317E-03    0.918E-02
DAV:  10    -0.132330378132E+04   -0.74717E-05   -0.18508E-05  6592   0.743E-03    0.568E-02
DAV:  11    -0.132330378594E+04   -0.46245E-05   -0.34496E-05  6560   0.958E-03    0.169E-02
DAV:  12    -0.132330378705E+04   -0.11044E-05   -0.47097E-06  7104   0.276E-03    0.107E-02
DAV:  13    -0.132330378725E+04   -0.20166E-06   -0.74162E-07  6336   0.140E-03    0.486E-03
DAV:  14    -0.132330378724E+04    0.12660E-07   -0.38052E-07  7104   0.832E-04    0.235E-03
DAV:  15    -0.132330378718E+04    0.55355E-07   -0.22445E-08  3264   0.290E-04    0.958E-04
DAV:  16    -0.132330378717E+04    0.13984E-07   -0.37664E-08  4288   0.253E-04    0.357E-04
DAV:  17    -0.132330378715E+04    0.13650E-07   -0.36030E-09  3136   0.102E-04    0.352E-04
DAV:  18    -0.132330378716E+04   -0.49477E-08   -0.12562E-09  3008   0.724E-05
   1 F= -.13421293E+04 E0= -.13421293E+04  d E =-.134213E+04  mag=     0.0000
       N       E                     dE             d eps       ncg     rms          rms(c)
DAV:   1    -0.132330269451E+04    0.10926E-02   -0.57970E-01  5120   0.870E-01    0.128E-01
DAV:   2    -0.132330299515E+04   -0.30065E-03   -0.49305E-03  5600   0.814E-02    0.918E-02
DAV:   3    -0.132330291895E+04    0.76202E-04   -0.57238E-04  6176   0.441E-02    0.349E-02
DAV:   4    -0.132330292679E+04   -0.78359E-05   -0.12705E-04  6112   0.161E-02    0.170E-02
DAV:   5    -0.132330292300E+04    0.37889E-05   -0.38922E-05  5856   0.974E-03    0.744E-03
DAV:   6    -0.132330292238E+04    0.62161E-06   -0.50859E-06  6144   0.338E-03    0.389E-03
DAV:   7    -0.132330292244E+04   -0.65891E-07   -0.32082E-06  6528   0.257E-03    0.214E-03
DAV:   8    -0.132330292247E+04   -0.23574E-07   -0.45505E-07  5824   0.108E-03    0.120E-03
DAV:   9    -0.132330292264E+04   -0.17308E-06   -0.24192E-07  5152   0.680E-04    0.619E-04
DAV:  10    -0.132330292278E+04   -0.14229E-06   -0.65815E-08  5024   0.485E-04    0.566E-04
DAV:  11    -0.132330292294E+04   -0.15227E-06   -0.56546E-08  4960   0.386E-04    0.233E-04
DAV:  12    -0.132330292308E+04   -0.14009E-06   -0.16699E-08  3840   0.201E-04    0.147E-04
DAV:  13    -0.132330292319E+04   -0.11311E-06   -0.53889E-09  3360   0.118E-04    0.149E-04
DAV:  14    -0.132330292329E+04   -0.10169E-06   -0.50110E-09  3328   0.955E-05    0.788E-05
DAV:  15    -0.132330292336E+04   -0.68248E-07   -0.36022E-09  3136   0.769E-05    0.479E-05
DAV:  16    -0.132330292340E+04   -0.39276E-07   -0.14834E-09  3072   0.471E-05    0.408E-05
DAV:  17    -0.132330292343E+04   -0.31927E-07   -0.13420E-09  3072   0.469E-05    0.177E-05
DAV:  18    -0.132330292344E+04   -0.10361E-07   -0.12659E-10  3072   0.315E-05    0.191E-05
DAV:  19    -0.132330292345E+04   -0.98953E-08    0.31878E-10  3072   0.217E-05
   2 F= -.13421286E+04 E0= -.13421286E+04  d E =0.704556E-03  mag=    -0.0000
       N       E                     dE             d eps       ncg     rms          rms(c)
DAV:   1    -0.132330274710E+04    0.17634E-03   -0.11595E+00  5120   0.122E+00    0.144E-01
DAV:   2    -0.132330351686E+04   -0.76976E-03   -0.10404E-02  5600   0.109E-01    0.936E-02
DAV:   3    -0.132330341008E+04    0.10679E-03   -0.83102E-04  6560   0.407E-02    0.491E-02
DAV:   4    -0.132330339818E+04    0.11899E-04   -0.23063E-04  5632   0.232E-02    0.179E-02
DAV:   5    -0.132330339419E+04    0.39823E-05   -0.64647E-05  5568   0.123E-02    0.987E-03
DAV:   6    -0.132330339442E+04   -0.22470E-06   -0.11644E-05  6080   0.379E-03    0.555E-03
DAV:   7    -0.132330339415E+04    0.27355E-06   -0.32546E-06  6464   0.269E-03    0.306E-03
DAV:   8    -0.132330339429E+04   -0.14169E-06   -0.64541E-07  6272   0.119E-03    0.187E-03
DAV:   9    -0.132330339440E+04   -0.11270E-06   -0.34057E-07  5984   0.825E-04    0.645E-04
DAV:  10    -0.132330339463E+04   -0.22803E-06   -0.62638E-08  4768   0.394E-04    0.405E-04
DAV:  11    -0.132330339486E+04   -0.22871E-06   -0.30675E-08  4352   0.299E-04    0.265E-04
DAV:  12    -0.132330339507E+04   -0.21572E-06   -0.20741E-08  4032   0.213E-04    0.122E-04
DAV:  13    -0.132330339521E+04   -0.13750E-06   -0.51455E-09  3328   0.105E-04    0.891E-05
DAV:  14    -0.132330339533E+04   -0.12008E-06   -0.50609E-09  3232   0.790E-05    0.534E-05
DAV:  15    -0.132330339542E+04   -0.85856E-07   -0.35136E-09  3200   0.679E-05    0.363E-05
DAV:  16    -0.132330339547E+04   -0.52096E-07   -0.26800E-09  3136   0.512E-05    0.305E-05
DAV:  17    -0.132330339548E+04   -0.11176E-07   -0.69446E-10  3136   0.388E-05    0.207E-05
DAV:  18    -0.132330339550E+04   -0.22090E-07   -0.11890E-09  3072   0.475E-05    0.364E-05
DAV:  19    -0.132330339550E+04   -0.28813E-08   -0.16104E-11  3072   0.356E-05
   3 F= -.13421289E+04 E0= -.13421289E+04  d E =-.267787E-03  mag=     0.0000
       N       E                     dE             d eps       ncg     rms          rms(c)
DAV:   1    -0.132330276175E+04    0.63375E-03   -0.11542E+00  5120   0.123E+00    0.132E-01
DAV:   2    -0.132330332147E+04   -0.55973E-03   -0.95406E-03  5600   0.113E-01    0.946E-02
DAV:   3    -0.132330319885E+04    0.12262E-03   -0.10380E-03  6400   0.473E-02    0.462E-02
DAV:   4    -0.132330319365E+04    0.52054E-05   -0.18143E-04  5696   0.196E-02    0.185E-02
DAV:   5    -0.132330318980E+04    0.38522E-05   -0.45898E-05  5568   0.115E-02    0.871E-03
DAV:   6    -0.132330318936E+04    0.43656E-06   -0.65211E-06  5632   0.355E-03    0.417E-03
DAV:   7    -0.132330318925E+04    0.10748E-06   -0.29379E-06  6656   0.264E-03    0.252E-03
DAV:   8    -0.132330318925E+04    0.72760E-08   -0.57324E-07  6336   0.120E-03    0.130E-03
DAV:   9    -0.132330318941E+04   -0.16605E-06   -0.23930E-07  6304   0.955E-04    0.677E-04
DAV:  10    -0.132330318974E+04   -0.32975E-06   -0.13975E-07  5824   0.688E-04    0.550E-04
DAV:  11    -0.132330319009E+04   -0.34440E-06   -0.69734E-08  5344   0.456E-04    0.276E-04
DAV:  12    -0.132330319054E+04   -0.45417E-06   -0.32765E-08  4512   0.387E-04    0.216E-04
DAV:  13    -0.132330319083E+04   -0.28877E-06   -0.30460E-08  4032   0.227E-04    0.158E-04
DAV:  14    -0.132330319105E+04   -0.22294E-06   -0.86330E-09  3456   0.117E-04    0.935E-05
DAV:  15    -0.132330319126E+04   -0.20638E-06   -0.74270E-09  3456   0.807E-05    0.637E-05
DAV:  16    -0.132330319138E+04   -0.12183E-06   -0.31478E-09  3264   0.698E-05    0.417E-05
DAV:  17    -0.132330319152E+04   -0.14323E-06   -0.66936E-09  3456   0.819E-05    0.652E-05
DAV:  18    -0.132330319154E+04   -0.21682E-07   -0.79821E-10  3136   0.603E-05    0.441E-05
DAV:  19    -0.132330319157E+04   -0.27081E-07   -0.85373E-10  3072   0.541E-05    0.352E-05
DAV:  20    -0.132330319159E+04   -0.17331E-07   -0.67628E-11  3072   0.458E-05    0.315E-05
DAV:  21    -0.132330319160E+04   -0.10914E-07    0.35325E-10  3072   0.294E-05    0.154E-05
DAV:  22    -0.132330319161E+04   -0.68540E-08    0.50510E-10  3072   0.228E-05
   4 F= -.13421295E+04 E0= -.13421295E+04  d E =-.595480E-03  mag=     0.0000
       N       E                     dE             d eps       ncg     rms          rms(c)
DAV:   1    -0.132330247370E+04    0.71790E-03   -0.11542E+00  5120   0.123E+00    0.189E-01
DAV:   2    -0.132330340492E+04   -0.93122E-03   -0.12454E-02  5568   0.123E-01    0.148E-01
DAV:   3    -0.132330322544E+04    0.17948E-03   -0.12583E-03  6336   0.552E-02    0.857E-02
DAV:   4    -0.132330321857E+04    0.68774E-05   -0.52466E-04  6080   0.383E-02    0.270E-02
DAV:   5    -0.132330320203E+04    0.16533E-04   -0.16189E-04  5952   0.216E-02    0.150E-02
DAV:   6    -0.132330320140E+04    0.63576E-06   -0.43407E-05  6080   0.833E-03    0.887E-03
DAV:   7    -0.132330320024E+04    0.11585E-05   -0.10112E-05  6464   0.487E-03    0.400E-03
DAV:   8    -0.132330320004E+04    0.20122E-06   -0.28538E-06  5952   0.289E-03    0.329E-03
DAV:   9    -0.132330319980E+04    0.23864E-06   -0.82514E-07  6688   0.156E-03    0.147E-03
DAV:  10    -0.132330320024E+04   -0.43592E-06   -0.79002E-07  6016   0.150E-03    0.138E-03
DAV:  11    -0.132330320081E+04   -0.56969E-06   -0.28078E-07  6432   0.110E-03    0.104E-03
DAV:  12    -0.132330320158E+04   -0.77508E-06   -0.27853E-07  5184   0.807E-04    0.389E-04
DAV:  13    -0.132330320219E+04   -0.61128E-06   -0.57581E-08  5024   0.365E-04    0.273E-04
DAV:  14    -0.132330320271E+04   -0.51320E-06   -0.25613E-08  4032   0.214E-04    0.219E-04
DAV:  15    -0.132330320331E+04   -0.60398E-06   -0.22469E-08  3936   0.129E-04    0.151E-04
DAV:  16    -0.132330320368E+04   -0.37214E-06   -0.12816E-08  3616   0.129E-04    0.709E-05
DAV:  17    -0.132330320391E+04   -0.22820E-06   -0.71800E-09  3392   0.898E-05    0.579E-05
DAV:  18    -0.132330320405E+04   -0.14484E-06   -0.42637E-09  3296   0.614E-05    0.616E-05
DAV:  19    -0.132330320411E+04   -0.59459E-07   -0.17598E-09  3136   0.511E-05    0.408E-05
DAV:  20    -0.132330320413E+04   -0.20955E-07   -0.82066E-10  3072   0.516E-05    0.153E-05
DAV:  21    -0.132330320415E+04   -0.10245E-07   -0.56507E-11  3072   0.377E-05    0.248E-05
DAV:  22    -0.132330320415E+04   -0.58935E-08    0.45055E-10  3072   0.216E-05
   5 F= -.13421285E+04 E0= -.13421285E+04  d E =0.992161E-03  mag=     0.0000
       N       E                     dE             d eps       ncg     rms          rms(c)
DAV:   1    -0.132330282299E+04    0.38116E-03   -0.11496E+00  5120   0.109E+00    0.953E-02
DAV:   2    -0.132330341406E+04   -0.59107E-03   -0.83144E-03  5632   0.877E-02    0.619E-02
DAV:   3    -0.132330332650E+04    0.87561E-04   -0.67895E-04  6112   0.294E-02    0.287E-02
DAV:   4    -0.132330331124E+04    0.15254E-04   -0.12195E-04  5600   0.131E-02    0.125E-02
DAV:   5    -0.132330331131E+04   -0.63810E-07   -0.18692E-05  5728   0.603E-03    0.693E-03
DAV:   6    -0.132330331082E+04    0.49239E-06   -0.37019E-06  5568   0.237E-03    0.259E-03
DAV:   7    -0.132330331109E+04   -0.27804E-06   -0.10303E-06  7200   0.146E-03    0.133E-03
DAV:   8    -0.132330331140E+04   -0.30267E-06   -0.21369E-07  5984   0.613E-04    0.747E-04
DAV:   9    -0.132330331189E+04   -0.49573E-06   -0.53281E-08  4672   0.320E-04    0.421E-04
DAV:  10    -0.132330331248E+04   -0.58893E-06   -0.57445E-08  4704   0.328E-04    0.215E-04
DAV:  11    -0.132330331295E+04   -0.46745E-06   -0.26938E-08  4064   0.194E-04    0.139E-04
DAV:  12    -0.132330331329E+04   -0.34296E-06   -0.11883E-08  3616   0.106E-04    0.951E-05
DAV:  13    -0.132330331361E+04   -0.31880E-06   -0.16534E-08  3984   0.960E-05    0.633E-05
DAV:  14    -0.132330331374E+04   -0.12855E-06   -0.28512E-09  3232   0.576E-05    0.442E-05
DAV:  15    -0.132330331388E+04   -0.14178E-06   -0.53966E-09  3424   0.665E-05    0.382E-05
DAV:  16    -0.132330331392E+04   -0.42390E-07   -0.12286E-09  3072   0.572E-05    0.298E-05
DAV:  17    -0.132330331396E+04   -0.41327E-07   -0.13875E-09  3072   0.554E-05    0.138E-05
DAV:  18    -0.132330331398E+04   -0.16837E-07   -0.54211E-10  3072   0.471E-05    0.189E-05
DAV:  19    -0.132330331399E+04   -0.98808E-08    0.25405E-10  3072   0.229E-05
   6 F= -.13421286E+04 E0= -.13421286E+04  d E =-.108529E-03  mag=     0.0000
       N       E                     dE             d eps       ncg     rms          rms(c)
DAV:   1    -0.132330282206E+04    0.49192E-03   -0.11597E+00  5120   0.111E+00    0.188E-01
DAV:   2    -0.132330342019E+04   -0.59813E-03   -0.10154E-02  5760   0.111E-01    0.156E-01
DAV:   3    -0.132330325754E+04    0.16265E-03   -0.13287E-03  6144   0.639E-02    0.663E-02
DAV:   4    -0.132330326637E+04   -0.88307E-05   -0.31063E-04  6496   0.246E-02    0.248E-02
DAV:   5    -0.132330325226E+04    0.14109E-04   -0.11258E-04  5856   0.199E-02    0.975E-03
DAV:   6    -0.132330325229E+04   -0.29395E-07   -0.15991E-05  5600   0.534E-03    0.501E-03
DAV:   7    -0.132330325268E+04   -0.38715E-06   -0.50570E-06  7008   0.329E-03    0.322E-03
DAV:   8    -0.132330325288E+04   -0.20306E-06   -0.74457E-07  5536   0.151E-03    0.182E-03
DAV:   9    -0.132330325369E+04   -0.80364E-06   -0.53814E-07  6624   0.139E-03    0.849E-04
DAV:  10    -0.132330325487E+04   -0.11882E-05   -0.31284E-07  6336   0.113E-03    0.862E-04
DAV:  11    -0.132330325597E+04   -0.10967E-05   -0.23027E-07  5920   0.772E-04    0.423E-04
DAV:  12    -0.132330325693E+04   -0.96124E-06   -0.89554E-08  5280   0.461E-04    0.362E-04
DAV:  13    -0.132330325744E+04   -0.50871E-06   -0.27951E-08  4128   0.226E-04    0.247E-04
DAV:  14    -0.132330325812E+04   -0.67707E-06   -0.30937E-08  4192   0.191E-04    0.129E-04
DAV:  15    -0.132330325847E+04   -0.34724E-06   -0.97857E-09  3520   0.103E-04    0.905E-05
DAV:  16    -0.132330325876E+04   -0.29558E-06   -0.93455E-09  3552   0.912E-05    0.483E-05
DAV:  17    -0.132330325896E+04   -0.19606E-06   -0.53505E-09  3392   0.865E-05    0.539E-05
DAV:  18    -0.132330325905E+04   -0.94777E-07   -0.31453E-09  3200   0.739E-05    0.465E-05
DAV:  19    -0.132330325910E+04   -0.45868E-07   -0.17090E-09  3072   0.667E-05    0.259E-05
DAV:  20    -0.132330325913E+04   -0.29773E-07   -0.10081E-09  3072   0.513E-05    0.210E-05
DAV:  21    -0.132330325914E+04   -0.17026E-07   -0.99614E-11  3072   0.324E-05    0.232E-05
DAV:  22    -0.132330325915E+04   -0.54715E-08    0.32503E-10  3072   0.199E-05
   7 F= -.13421296E+04 E0= -.13421296E+04  d E =-.984362E-03  mag=    -0.0000
       N       E                     dE             d eps       ncg     rms          rms(c)
DAV:   1    -0.132330240476E+04    0.85439E-03   -0.11548E+00  5120   0.115E+00    0.181E-01
DAV:   2    -0.132330343950E+04   -0.10347E-02   -0.12888E-02  5760   0.114E-01    0.140E-01
DAV:   3    -0.132330327296E+04    0.16654E-03   -0.11428E-03  6496   0.524E-02    0.780E-02
DAV:   4    -0.132330326436E+04    0.86020E-05   -0.48428E-04  5856   0.364E-02    0.263E-02
DAV:   5    -0.132330324731E+04    0.17050E-04   -0.22023E-04  5632   0.273E-02    0.119E-02
DAV:   6    -0.132330324775E+04   -0.43676E-06   -0.29394E-05  5600   0.653E-03    0.693E-03
DAV:   7    -0.132330324780E+04   -0.52023E-07   -0.62007E-06  6528   0.364E-03    0.455E-03
DAV:   8    -0.132330324781E+04   -0.97061E-08   -0.16444E-06  5824   0.242E-03    0.321E-03
DAV:   9    -0.132330324840E+04   -0.58816E-06   -0.87865E-07  6560   0.200E-03    0.131E-03
DAV:  10    -0.132330324948E+04   -0.10818E-05   -0.73232E-07  5696   0.130E-03    0.137E-03
DAV:  11    -0.132330325053E+04   -0.10500E-05   -0.24835E-07  6144   0.825E-04    0.697E-04
DAV:  12    -0.132330325187E+04   -0.13437E-05   -0.13679E-07  5632   0.648E-04    0.349E-04
DAV:  13    -0.132330325283E+04   -0.95641E-06   -0.83415E-08  4704   0.443E-04    0.222E-04
DAV:  14    -0.132330325347E+04   -0.63902E-06   -0.34119E-08  4064   0.212E-04    0.152E-04
DAV:  15    -0.132330325404E+04   -0.57500E-06   -0.15739E-08  3744   0.124E-04    0.114E-04
DAV:  16    -0.132330325444E+04   -0.39290E-06   -0.11808E-08  3616   0.100E-04    0.738E-05
DAV:  17    -0.132330325469E+04   -0.25891E-06   -0.65131E-09  3392   0.788E-05    0.736E-05
DAV:  18    -0.132330325481E+04   -0.11806E-06   -0.26665E-09  3136   0.672E-05    0.428E-05
DAV:  19    -0.132330325489E+04   -0.73269E-07   -0.29625E-09  3072   0.711E-05    0.449E-05
DAV:  20    -0.132330325491E+04   -0.20576E-07   -0.11318E-09  3072   0.588E-05    0.433E-05
DAV:  21    -0.132330325492E+04   -0.10099E-07   -0.92705E-11  3072   0.393E-05    0.276E-05
DAV:  22    -0.132330325492E+04   -0.30850E-08    0.35366E-10  3072   0.283E-05
   8 F= -.13421285E+04 E0= -.13421285E+04  d E =0.105170E-02  mag=     0.0000
       N       E                     dE             d eps       ncg     rms          rms(c)
DAV:   1    -0.132330243304E+04    0.82188E-03   -0.11696E+00  5120   0.114E+00    0.309E-01
DAV:   2    -0.132330301547E+04   -0.58243E-03   -0.10510E-02  5792   0.120E-01    0.256E-01
DAV:   3    -0.132330287316E+04    0.14231E-03   -0.25405E-03  5888   0.100E-01    0.463E-02
DAV:   4    -0.132330284828E+04    0.24879E-04   -0.64005E-04  5600   0.397E-02    0.296E-02
DAV:   5    -0.132330284475E+04    0.35269E-05   -0.17779E-04  6336   0.175E-02    0.176E-02
DAV:   6    -0.132330284193E+04    0.28274E-05   -0.27886E-05  6816   0.796E-03    0.719E-03
DAV:   7    -0.132330284237E+04   -0.44022E-06   -0.38943E-06  6368   0.262E-03    0.361E-03
DAV:   8    -0.132330284344E+04   -0.10738E-05   -0.83366E-07  7264   0.149E-03    0.153E-03
DAV:   9    -0.132330284467E+04   -0.12284E-05   -0.25165E-07  5344   0.691E-04    0.900E-04
DAV:  10    -0.132330284650E+04   -0.18288E-05   -0.20256E-07  5056   0.631E-04    0.557E-04
DAV:  11    -0.132330284804E+04   -0.15387E-05   -0.15532E-07  5184   0.595E-04    0.301E-04
DAV:  12    -0.132330284916E+04   -0.11280E-05   -0.67540E-08  4640   0.283E-04    0.312E-04
DAV:  13    -0.132330284990E+04   -0.73297E-06   -0.23817E-08  4032   0.152E-04    0.193E-04
DAV:  14    -0.132330285045E+04   -0.54871E-06   -0.20164E-08  4128   0.133E-04    0.122E-04
DAV:  15    -0.132330285079E+04   -0.34833E-06   -0.74547E-09  3456   0.777E-05    0.623E-05
DAV:  16    -0.132330285103E+04   -0.23305E-06   -0.51835E-09  3360   0.676E-05    0.390E-05
DAV:  17    -0.132330285115E+04   -0.11858E-06   -0.27758E-09  3232   0.595E-05    0.317E-05
DAV:  18    -0.132330285122E+04   -0.74811E-07   -0.20062E-09  3072   0.494E-05    0.240E-05
DAV:  19    -0.132330285127E+04   -0.45708E-07   -0.10546E-09  3072   0.435E-05    0.202E-05
DAV:  20    -0.132330285128E+04   -0.12486E-07   -0.13753E-10  3072   0.297E-05    0.168E-05
DAV:  21    -0.132330285128E+04   -0.56752E-08    0.36184E-10  3072   0.216E-05
   9 F= -.13421286E+04 E0= -.13421286E+04  d E =-.453127E-05  mag=     0.0000
       N       E                     dE             d eps       ncg     rms          rms(c)
DAV:   1    -0.132330245976E+04    0.39151E-03   -0.11443E+00  5120   0.113E+00    0.238E-01
DAV:   2    -0.132330342452E+04   -0.96476E-03   -0.12306E-02  5696   0.103E-01    0.171E-01
DAV:   3    -0.132330326235E+04    0.16217E-03   -0.13484E-03  6496   0.525E-02    0.781E-02
DAV:   4    -0.132330325815E+04    0.41961E-05   -0.31574E-04  5792   0.211E-02    0.303E-02
DAV:   5    -0.132330324592E+04    0.12234E-04   -0.11679E-04  5728   0.170E-02    0.127E-02
DAV:   6    -0.132330324637E+04   -0.44848E-06   -0.18838E-05  5696   0.587E-03    0.566E-03
DAV:   7    -0.132330324890E+04   -0.25382E-05   -0.52371E-06  6624   0.337E-03    0.262E-03
DAV:   8    -0.132330325064E+04   -0.17341E-05   -0.93751E-07  6144   0.132E-03    0.147E-03
DAV:   9    -0.132330325392E+04   -0.32820E-05   -0.56964E-07  5376   0.113E-03    0.119E-03
DAV:  10    -0.132330325701E+04   -0.30845E-05   -0.34598E-07  6144   0.801E-04    0.816E-04
DAV:  11    -0.132330326005E+04   -0.30459E-05   -0.49944E-07  5792   0.860E-04    0.609E-04
DAV:  12    -0.132330326188E+04   -0.18333E-05   -0.13517E-07  4928   0.499E-04    0.422E-04
DAV:  13    -0.132330326275E+04   -0.86693E-06   -0.52013E-08  4960   0.244E-04    0.226E-04
DAV:  14    -0.132330326371E+04   -0.95427E-06   -0.38707E-08  4224   0.177E-04    0.126E-04
DAV:  15    -0.132330326419E+04   -0.48487E-06   -0.14571E-08  3808   0.117E-04    0.108E-04
DAV:  16    -0.132330326468E+04   -0.49270E-06   -0.19847E-08  4064   0.106E-04    0.554E-05
DAV:  17    -0.132330326484E+04   -0.15418E-06   -0.28602E-09  3296   0.677E-05    0.640E-05
DAV:  18    -0.132330326495E+04   -0.10896E-06   -0.20884E-09  3168   0.525E-05    0.544E-05
DAV:  19    -0.132330326501E+04   -0.58673E-07   -0.86593E-10  3072   0.543E-05    0.279E-05
DAV:  20    -0.132330326503E+04   -0.28042E-07   -0.34242E-10  3072   0.447E-05    0.195E-05
DAV:  21    -0.132330326505E+04   -0.20125E-07    0.15341E-10  3072   0.297E-05    0.253E-05
DAV:  22    -0.132330326507E+04   -0.11845E-07    0.53154E-10  3072   0.205E-05    0.178E-05
DAV:  23    -0.132330326507E+04   -0.42201E-08    0.68901E-10  2944   0.164E-05
  10 F= -.13421296E+04 E0= -.13421296E+04  d E =-.996417E-03  mag=    -0.0000
       N       E                     dE             d eps       ncg     rms          rms(c)
DAV:   1    -0.132330203998E+04    0.12251E-02   -0.61396E-01  5120   0.830E-01    0.159E-01
DAV:   2    -0.132330238233E+04   -0.34235E-03   -0.71545E-03  5920   0.825E-02    0.107E-01
DAV:   3    -0.132330227325E+04    0.10907E-03   -0.97675E-04  6400   0.410E-02    0.581E-02
DAV:   4    -0.132330226178E+04    0.11473E-04   -0.17912E-04  6016   0.175E-02    0.213E-02
DAV:   5    -0.132330225784E+04    0.39375E-05   -0.36076E-05  5664   0.953E-03    0.916E-03
DAV:   6    -0.132330225690E+04    0.94174E-06   -0.71803E-06  6336   0.397E-03    0.390E-03
DAV:   7    -0.132330225736E+04   -0.46230E-06   -0.16202E-06  6656   0.196E-03    0.206E-03
DAV:   8    -0.132330225804E+04   -0.67501E-06   -0.38306E-07  6464   0.107E-03    0.117E-03
DAV:   9    -0.132330225934E+04   -0.13050E-05   -0.23458E-07  5568   0.112E-03    0.684E-04
DAV:  10    -0.132330226064E+04   -0.12938E-05   -0.24974E-07  6144   0.844E-04    0.520E-04
DAV:  11    -0.132330226224E+04   -0.16043E-05   -0.13965E-07  4992   0.611E-04    0.291E-04
DAV:  12    -0.132330226312E+04   -0.87819E-06   -0.76402E-08  5280   0.396E-04    0.214E-04
DAV:  13    -0.132330226384E+04   -0.71812E-06   -0.26729E-08  4096   0.192E-04    0.154E-04
DAV:  14    -0.132330226436E+04   -0.52102E-06   -0.12783E-08  3584   0.108E-04    0.911E-05
DAV:  15    -0.132330226470E+04   -0.34447E-06   -0.81187E-09  3392   0.878E-05    0.636E-05
DAV:  16    -0.132330226496E+04   -0.25450E-06   -0.60695E-09  3424   0.694E-05    0.468E-05
DAV:  17    -0.132330226509E+04   -0.13353E-06   -0.33452E-09  3232   0.572E-05    0.329E-05
DAV:  18    -0.132330226515E+04   -0.60187E-07   -0.18778E-09  3104   0.519E-05    0.279E-05
DAV:  19    -0.132330226518E+04   -0.25640E-07   -0.67796E-10  3104   0.419E-05    0.221E-05
DAV:  20    -0.132330226519E+04   -0.81345E-08    0.76139E-11  3104   0.316E-05
  11 F= -.13421279E+04 E0= -.13421279E+04  d E =0.168756E-02  mag=     0.0000
       N       E                     dE             d eps       ncg     rms          rms(c)
DAV:   1    -0.132330343380E+04   -0.11686E-02   -0.72319E-02  5024   0.892E-02    0.913E-02
DAV:   2    -0.132330338168E+04    0.52115E-04   -0.49241E-04  5600   0.940E-03    0.517E-02
DAV:   3    -0.132330337980E+04    0.18789E-05   -0.90725E-05  5920   0.465E-03    0.150E-02
DAV:   4    -0.132330338125E+04   -0.14495E-05   -0.96838E-06  6208   0.177E-03    0.469E-03
DAV:   5    -0.132330338208E+04   -0.82368E-06   -0.13978E-06  5248   0.788E-04    0.159E-03
DAV:   6    -0.132330338288E+04   -0.80251E-06   -0.31091E-07  4624   0.340E-04    0.814E-04
DAV:   7    -0.132330338364E+04   -0.76235E-06   -0.69009E-08  3936   0.169E-04    0.415E-04
DAV:   8    -0.132330338456E+04   -0.91376E-06   -0.50129E-08  3968   0.142E-04    0.229E-04
DAV:   9    -0.132330338516E+04   -0.60217E-06   -0.17724E-08  3712   0.105E-04    0.140E-04
DAV:  10    -0.132330338582E+04   -0.66290E-06   -0.23151E-08  3872   0.110E-04    0.106E-04
DAV:  11    -0.132330338632E+04   -0.49830E-06   -0.19410E-08  3904   0.132E-04    0.540E-05
DAV:  12    -0.132330338653E+04   -0.20707E-06   -0.80916E-09  3360   0.140E-04    0.533E-05
DAV:  13    -0.132330338667E+04   -0.14807E-06   -0.60195E-09  3360   0.105E-04    0.302E-05
DAV:  14    -0.132330338675E+04   -0.75685E-07   -0.19821E-09  3072   0.629E-05    0.157E-05
DAV:  15    -0.132330338680E+04   -0.50524E-07   -0.11028E-09  3072   0.455E-05    0.176E-05
DAV:  16    -0.132330338682E+04   -0.17317E-07   -0.88623E-11  3072   0.332E-05    0.128E-05
DAV:  17    -0.132330338683E+04   -0.10506E-07    0.36785E-10  3072   0.206E-05    0.521E-06
DAV:  18    -0.132330338684E+04   -0.72323E-08    0.59448E-10  3072   0.163E-05
  12 F= -.13421290E+04 E0= -.13421290E+04  d E =-.110674E-02  mag=     0.0000
       N       E                     dE             d eps       ncg     rms          rms(c)
DAV:   1    -0.132330352121E+04   -0.13438E-03   -0.69454E-02  4992   0.919E-02    0.775E-02
DAV:   2    -0.132330352525E+04   -0.40425E-05   -0.31732E-04  5504   0.744E-03    0.464E-02
DAV:   3    -0.132330353120E+04   -0.59557E-05   -0.66946E-05  5536   0.404E-03    0.542E-03
DAV:   4    -0.132330353109E+04    0.11067E-06   -0.61100E-06  5120   0.132E-03    0.342E-03
DAV:   5    -0.132330353150E+04   -0.40195E-06   -0.18345E-06  4896   0.815E-04    0.107E-03
DAV:   6    -0.132330353211E+04   -0.61278E-06   -0.24216E-07  4736   0.396E-04    0.653E-04
DAV:   7    -0.132330353277E+04   -0.66178E-06   -0.55325E-08  4000   0.175E-04    0.335E-04
DAV:   8    -0.132330353351E+04   -0.73932E-06   -0.33861E-08  4000   0.131E-04    0.211E-04
DAV:   9    -0.132330353419E+04   -0.68231E-06   -0.23643E-08  4048   0.120E-04    0.135E-04
DAV:  10    -0.132330353475E+04   -0.55847E-06   -0.18543E-08  3856   0.907E-05    0.852E-05
DAV:  11    -0.132330353505E+04   -0.30073E-06   -0.72315E-09  3520   0.684E-05    0.612E-05
DAV:  12    -0.132330353531E+04   -0.25389E-06   -0.63229E-09  3456   0.697E-05    0.391E-05
DAV:  13    -0.132330353545E+04   -0.14310E-06   -0.41070E-09  3360   0.667E-05    0.262E-05
DAV:  14    -0.132330353551E+04   -0.57174E-07   -0.16901E-09  3072   0.525E-05    0.171E-05
DAV:  15    -0.132330353554E+04   -0.35885E-07   -0.91977E-10  3072   0.401E-05    0.119E-05
DAV:  16    -0.132330353555E+04   -0.13213E-07   -0.11452E-10  3072   0.356E-05    0.834E-06
DAV:  17    -0.132330353556E+04   -0.44820E-08    0.28310E-10  3072   0.246E-05
  13 F= -.13421289E+04 E0= -.13421289E+04  d E =0.362338E-04  mag=    -0.0000
       N       E                     dE             d eps       ncg     rms          rms(c)
DAV:   1    -0.132330341924E+04    0.11632E-03   -0.70207E-02  5024   0.111E-01    0.814E-02
DAV:   2    -0.132330342800E+04   -0.87683E-05   -0.56564E-04  5568   0.105E-02    0.494E-02
DAV:   3    -0.132330343042E+04   -0.24157E-05   -0.11727E-04  5824   0.503E-03    0.914E-03
DAV:   4    -0.132330342951E+04    0.91181E-06   -0.10685E-05  5632   0.159E-03    0.483E-03
DAV:   5    -0.132330343015E+04   -0.64060E-06   -0.32538E-06  5248   0.873E-04    0.122E-03
DAV:   6    -0.132330343085E+04   -0.70516E-06   -0.20639E-07  4352   0.340E-04    0.721E-04
DAV:   7    -0.132330343204E+04   -0.11871E-05   -0.10121E-07  3904   0.200E-04    0.268E-04
DAV:   8    -0.132330343280E+04   -0.75490E-06   -0.30960E-08  3744   0.116E-04    0.193E-04
DAV:   9    -0.132330343366E+04   -0.86837E-06   -0.27050E-08  3744   0.995E-05    0.115E-04
DAV:  10    -0.132330343440E+04   -0.73729E-06   -0.30047E-08  3920   0.983E-05    0.705E-05
DAV:  11    -0.132330343482E+04   -0.41309E-06   -0.12402E-08  3648   0.823E-05    0.552E-05
DAV:  12    -0.132330343507E+04   -0.25058E-06   -0.62994E-09  3408   0.847E-05    0.354E-05
DAV:  13    -0.132330343520E+04   -0.12944E-06   -0.32117E-09  3264   0.735E-05    0.248E-05
DAV:  14    -0.132330343527E+04   -0.75626E-07   -0.14943E-09  3072   0.520E-05    0.160E-05
DAV:  15    -0.132330343532E+04   -0.52372E-07   -0.89718E-10  3072   0.447E-05    0.112E-05
DAV:  16    -0.132330343534E+04   -0.17259E-07   -0.67210E-12  3072   0.323E-05    0.911E-06
DAV:  17    -0.132330343535E+04   -0.14319E-07    0.41073E-10  3072   0.196E-05    0.556E-06
DAV:  18    -0.132330343536E+04   -0.85274E-08    0.67298E-10  3072   0.141E-05
  14 F= -.13421290E+04 E0= -.13421290E+04  d E =-.502215E-04  mag=    -0.0000
       N       E                     dE             d eps       ncg     rms          rms(c)
DAV:   1    -0.132330319938E+04    0.23598E-03   -0.70952E-02  4416   0.111E-01    0.761E-02
DAV:   2    -0.132330320677E+04   -0.73881E-05   -0.36031E-04  5312   0.816E-03    0.455E-02
DAV:   3    -0.132330321274E+04   -0.59749E-05   -0.64654E-05  5696   0.376E-03    0.556E-03
DAV:   4    -0.132330321295E+04   -0.21377E-06   -0.67793E-06  5248   0.118E-03    0.370E-03
DAV:   5    -0.132330321416E+04   -0.12037E-05   -0.28082E-06  4944   0.806E-04    0.117E-03
DAV:   6    -0.132330321506E+04   -0.89812E-06   -0.32583E-07  4496   0.334E-04    0.712E-04
DAV:   7    -0.132330321662E+04   -0.15651E-05   -0.11154E-07  3712   0.172E-04    0.341E-04
DAV:   8    -0.132330321794E+04   -0.13219E-05   -0.49632E-08  3808   0.110E-04    0.220E-04
DAV:   9    -0.132330321963E+04   -0.16840E-05   -0.68218E-08  4096   0.139E-04    0.129E-04
DAV:  10    -0.132330322041E+04   -0.78483E-06   -0.22464E-08  3648   0.102E-04    0.914E-05
DAV:  11    -0.132330322095E+04   -0.53330E-06   -0.12428E-08  3424   0.870E-05    0.660E-05
DAV:  12    -0.132330322125E+04   -0.30339E-06   -0.58078E-09  3344   0.781E-05    0.433E-05
DAV:  13    -0.132330322153E+04   -0.28619E-06   -0.75514E-09  3440   0.756E-05    0.318E-05
DAV:  14    -0.132330322163E+04   -0.93860E-07   -0.20043E-09  3168   0.583E-05    0.235E-05
DAV:  15    -0.132330322168E+04   -0.50262E-07   -0.87769E-10  3072   0.489E-05    0.137E-05
DAV:  16    -0.132330322171E+04   -0.31359E-07   -0.41921E-10  3072   0.393E-05    0.164E-05
DAV:  17    -0.132330322172E+04   -0.68831E-08    0.38473E-10  3072   0.213E-05
  15 F= -.13421288E+04 E0= -.13421288E+04  d E =0.229049E-03  mag=     0.0000
       N       E                     dE             d eps       ncg     rms          rms(c)
DAV:   1    -0.132330287022E+04    0.35149E-03   -0.81845E-02  4544   0.115E-01    0.136E-01
DAV:   2    -0.132330263932E+04    0.23090E-03   -0.13852E-03  5312   0.177E-02    0.724E-02
DAV:   3    -0.132330260158E+04    0.37734E-04   -0.57180E-04  5376   0.927E-03    0.246E-02
DAV:   4    -0.132330259396E+04    0.76241E-05   -0.47932E-05  5408   0.296E-03    0.151E-02
DAV:   5    -0.132330259446E+04   -0.49802E-06   -0.14031E-05  5440   0.169E-03    0.268E-03
DAV:   6    -0.132330259477E+04   -0.30758E-06   -0.11721E-06  4560   0.513E-04    0.133E-03
DAV:   7    -0.132330259525E+04   -0.48743E-06   -0.25272E-07  4304   0.255E-04    0.607E-04
DAV:   8    -0.132330259572E+04   -0.46824E-06   -0.33181E-08  3584   0.150E-04    0.240E-04
DAV:   9    -0.132330259610E+04   -0.38132E-06   -0.16285E-08  3456   0.102E-04    0.147E-04
DAV:  10    -0.132330259645E+04   -0.34958E-06   -0.87865E-09  3488   0.715E-05    0.764E-05
DAV:  11    -0.132330259676E+04   -0.31070E-06   -0.89307E-09  3392   0.717E-05    0.542E-05
DAV:  12    -0.132330259689E+04   -0.13057E-06   -0.29502E-09  3264   0.631E-05    0.414E-05
DAV:  13    -0.132330259707E+04   -0.18113E-06   -0.58119E-09  3424   0.595E-05    0.300E-05
DAV:  14    -0.132330259713E+04   -0.57538E-07   -0.97910E-10  3136   0.443E-05    0.237E-05
DAV:  15    -0.132330259718E+04   -0.53187E-07   -0.10227E-09  3200   0.412E-05    0.123E-05
DAV:  16    -0.132330259720E+04   -0.18816E-07    0.33599E-11  3072   0.302E-05    0.123E-05
DAV:  17    -0.132330259721E+04   -0.72905E-08    0.54750E-10  3072   0.172E-05
  16 F= -.13421281E+04 E0= -.13421281E+04  d E =0.659473E-03  mag=    -0.0000
       N       E                     dE             d eps       ncg     rms          rms(c)
DAV:   1    -0.132330362448E+04   -0.10273E-02   -0.74648E-02  5184   0.117E-01    0.102E-01
DAV:   2    -0.132330359095E+04    0.33527E-04   -0.87504E-04  5504   0.141E-02    0.604E-02
DAV:   3    -0.132330357575E+04    0.15198E-04   -0.28302E-04  5792   0.671E-03    0.171E-02
DAV:   4    -0.132330357156E+04    0.41910E-05   -0.22780E-05  5312   0.217E-03    0.992E-03
DAV:   5    -0.132330357138E+04    0.18672E-06   -0.10507E-05  5216   0.135E-03    0.178E-03
DAV:   6    -0.132330357161E+04   -0.23500E-06   -0.63300E-07  4032   0.396E-04    0.961E-04
DAV:   7    -0.132330357186E+04   -0.24632E-06   -0.12099E-07  3840   0.199E-04    0.408E-04
DAV:   8    -0.132330357208E+04   -0.21799E-06   -0.23472E-08  3488   0.105E-04    0.200E-04
DAV:   9    -0.132330357230E+04   -0.22237E-06   -0.91553E-09  3424   0.821E-05    0.104E-04
DAV:  10    -0.132330357251E+04   -0.21343E-06   -0.96703E-09  3488   0.786E-05    0.694E-05
DAV:  11    -0.132330357264E+04   -0.13139E-06   -0.54209E-09  3264   0.828E-05    0.430E-05
DAV:  12    -0.132330357272E+04   -0.73283E-07   -0.33276E-09  3264   0.671E-05    0.429E-05
DAV:  13    -0.132330357276E+04   -0.42870E-07   -0.15368E-09  3072   0.468E-05    0.171E-05
DAV:  14    -0.132330357280E+04   -0.39130E-07   -0.19844E-09  3264   0.460E-05    0.238E-05
DAV:  15    -0.132330357280E+04   -0.50059E-08   -0.47924E-11  3072   0.324E-05
  17 F= -.13421292E+04 E0= -.13421292E+04  d E =-.107876E-02  mag=     0.0000
       N       E                     dE             d eps       ncg     rms          rms(c)
DAV:   1    -0.132330287391E+04    0.69889E-03   -0.74693E-02  5120   0.120E-01    0.102E-01
DAV:   2    -0.132330280112E+04    0.72793E-04   -0.70039E-04  5312   0.130E-02    0.570E-02
DAV:   3    -0.132330279103E+04    0.10086E-04   -0.27658E-04  5760   0.710E-03    0.168E-02
DAV:   4    -0.132330278674E+04    0.42896E-05   -0.27782E-05  5216   0.224E-03    0.100E-02
DAV:   5    -0.132330278670E+04    0.38417E-07   -0.96897E-06  5216   0.133E-03    0.179E-03
DAV:   6    -0.132330278681E+04   -0.10269E-06   -0.66800E-07  4352   0.468E-04    0.101E-03
DAV:   7    -0.132330278698E+04   -0.17170E-06   -0.10993E-07  3968   0.203E-04    0.538E-04
DAV:   8    -0.132330278721E+04   -0.23474E-06   -0.27780E-08  3712   0.152E-04    0.205E-04
DAV:   9    -0.132330278740E+04   -0.18990E-06   -0.11807E-08  3488   0.112E-04    0.134E-04
DAV:  10    -0.132330278760E+04   -0.19625E-06   -0.91072E-09  3424   0.953E-05    0.733E-05
DAV:  11    -0.132330278775E+04   -0.15002E-06   -0.84655E-09  3360   0.979E-05    0.487E-05
DAV:  12    -0.132330278782E+04   -0.73051E-07   -0.45132E-09  3264   0.888E-05    0.395E-05
DAV:  13    -0.132330278788E+04   -0.53697E-07   -0.29834E-09  3264   0.701E-05    0.226E-05
DAV:  14    -0.132330278792E+04   -0.41138E-07   -0.18706E-09  3136   0.504E-05    0.162E-05
DAV:  15    -0.132330278793E+04   -0.18466E-07   -0.62453E-10  3072   0.374E-05    0.138E-05
DAV:  16    -0.132330278795E+04   -0.10885E-07    0.11982E-10  3072   0.250E-05    0.776E-06
DAV:  17    -0.132330278795E+04   -0.66066E-08    0.48300E-10  3072   0.185E-05
  18 F= -.13421284E+04 E0= -.13421284E+04  d E =0.738951E-03  mag=     0.0000
       N       E                     dE             d eps       ncg     rms          rms(c)
DAV:   1    -0.132330314063E+04   -0.35269E-03   -0.70936E-02  5184   0.117E-01    0.752E-02
DAV:   2    -0.132330316409E+04   -0.23454E-04   -0.36819E-04  5824   0.889E-03    0.454E-02
DAV:   3    -0.132330316641E+04   -0.23237E-05   -0.51206E-05  5504   0.382E-03    0.409E-03
DAV:   4    -0.132330316671E+04   -0.30415E-06   -0.46355E-06  6144   0.105E-03    0.265E-03
DAV:   5    -0.132330316692E+04   -0.20373E-06   -0.83132E-07  4784   0.628E-04    0.861E-04
DAV:   6    -0.132330316733E+04   -0.41710E-06   -0.18304E-07  4800   0.371E-04    0.492E-04
DAV:   7    -0.132330316773E+04   -0.39917E-06   -0.26938E-08  3648   0.152E-04    0.305E-04
DAV:   8    -0.132330316834E+04   -0.60683E-06   -0.31615E-08  4064   0.136E-04    0.178E-04
DAV:   9    -0.132330316896E+04   -0.62159E-06   -0.39281E-08  4048   0.165E-04    0.121E-04
DAV:  10    -0.132330316921E+04   -0.24270E-06   -0.85128E-09  3520   0.108E-04    0.951E-05
DAV:  11    -0.132330316947E+04   -0.26457E-06   -0.10167E-08  3488   0.118E-04    0.502E-05
DAV:  12    -0.132330316960E+04   -0.12852E-06   -0.62032E-09  3360   0.117E-04    0.458E-05
DAV:  13    -0.132330316967E+04   -0.74811E-07   -0.37429E-09  3168   0.102E-04    0.283E-05
DAV:  14    -0.132330316973E+04   -0.59910E-07   -0.31945E-09  3264   0.827E-05    0.228E-05
DAV:  15    -0.132330316975E+04   -0.19412E-07   -0.41167E-10  3072   0.391E-05    0.163E-05
DAV:  16    -0.132330316977E+04   -0.20169E-07   -0.54575E-11  3072   0.312E-05    0.126E-05
DAV:  17    -0.132330316978E+04   -0.96625E-08    0.34503E-10  3072   0.228E-05
  19 F= -.13421283E+04 E0= -.13421283E+04  d E =0.904976E-04  mag=    -0.0000
       N       E                     dE             d eps       ncg     rms          rms(c)
DAV:   1    -0.132330296468E+04    0.20509E-03   -0.76477E-02  5184   0.118E-01    0.107E-01
DAV:   2    -0.132330291444E+04    0.50242E-04   -0.70209E-04  5632   0.121E-02    0.640E-02
DAV:   3    -0.132330288422E+04    0.30220E-04   -0.16055E-04  5408   0.566E-03    0.709E-03
DAV:   4    -0.132330288441E+04   -0.19494E-06   -0.14838E-05  5216   0.154E-03    0.431E-03
DAV:   5    -0.132330288426E+04    0.15167E-06   -0.21082E-06  4960   0.761E-04    0.115E-03
DAV:   6    -0.132330288454E+04   -0.28088E-06   -0.38908E-07  4752   0.366E-04    0.533E-04
DAV:   7    -0.132330288483E+04   -0.28874E-06   -0.34297E-08  3648   0.136E-04    0.284E-04
DAV:   8    -0.132330288519E+04   -0.36097E-06   -0.16894E-08  3552   0.952E-05    0.135E-04
DAV:   9    -0.132330288553E+04   -0.33333E-06   -0.15208E-08  3648   0.948E-05    0.829E-05
DAV:  10    -0.132330288576E+04   -0.23833E-06   -0.84678E-09  3360   0.770E-05    0.558E-05
DAV:  11    -0.132330288596E+04   -0.19913E-06   -0.11452E-08  3616   0.892E-05    0.363E-05
DAV:  12    -0.132330288603E+04   -0.69776E-07   -0.32752E-09  3264   0.794E-05    0.264E-05
DAV:  13    -0.132330288609E+04   -0.52984E-07   -0.17947E-09  3104   0.529E-05    0.154E-05
DAV:  14    -0.132330288613E+04   -0.40513E-07   -0.98405E-10  3072   0.403E-05    0.124E-05
DAV:  15    -0.132330288614E+04   -0.15949E-07   -0.18755E-10  3072   0.297E-05    0.847E-06
DAV:  16    -0.132330288615E+04   -0.11627E-07    0.19885E-10  3072   0.218E-05    0.817E-06
DAV:  17    -0.132330288616E+04   -0.75088E-08    0.54412E-10  3072   0.150E-05
  20 F= -.13421285E+04 E0= -.13421285E+04  d E =-.125280E-03  mag=    -0.0000
       N       E                     dE             d eps       ncg     rms          rms(c)
DAV:   1    -0.132330314223E+04   -0.25608E-03   -0.83985E-02  5024   0.958E-02    0.143E-01
DAV:   2    -0.132330289598E+04    0.24626E-03   -0.15733E-03  5216   0.159E-02    0.768E-02
DAV:   3    -0.132330284706E+04    0.48920E-04   -0.62381E-04  5472   0.925E-03    0.256E-02
DAV:   4    -0.132330283813E+04    0.89288E-05   -0.53290E-05  5120   0.296E-03    0.156E-02
DAV:   5    -0.132330283823E+04   -0.99462E-07   -0.13947E-05  5632   0.160E-03    0.294E-03
DAV:   6    -0.132330283823E+04   -0.36816E-08   -0.14209E-06  4640   0.557E-04    0.120E-03
DAV:   7    -0.132330283836E+04   -0.13257E-06   -0.21761E-07  4160   0.239E-04    0.528E-04
DAV:   8    -0.132330283848E+04   -0.11831E-06   -0.23232E-08  3520   0.122E-04    0.212E-04
DAV:   9    -0.132330283859E+04   -0.10981E-06   -0.92430E-09  3360   0.101E-04    0.117E-04
DAV:  10    -0.132330283871E+04   -0.12311E-06   -0.59307E-09  3392   0.858E-05    0.640E-05
DAV:  11    -0.132330283878E+04   -0.69849E-07   -0.26877E-09  3232   0.753E-05    0.423E-05
DAV:  12    -0.132330283884E+04   -0.60681E-07   -0.26305E-09  3264   0.758E-05    0.308E-05
DAV:  13    -0.132330283887E+04   -0.28245E-07   -0.10999E-09  3072   0.595E-05    0.246E-05
DAV:  14    -0.132330283891E+04   -0.32058E-07   -0.82996E-10  3104   0.465E-05    0.156E-05
DAV:  15    -0.132330283892E+04   -0.17419E-07   -0.36718E-10  3072   0.371E-05    0.135E-05
DAV:  16    -0.132330283893E+04   -0.49040E-08    0.25002E-10  3072   0.236E-05
  21 F= -.13421284E+04 E0= -.13421284E+04  d E =0.868842E-04  mag=    -0.0000
       N       E                     dE             d eps       ncg     rms          rms(c)
DAV:   1    -0.132330369165E+04   -0.85272E-03   -0.77760E-02  5056   0.951E-02    0.112E-01
DAV:   2    -0.132330359195E+04    0.99696E-04   -0.87296E-04  5056   0.111E-02    0.641E-02
DAV:   3    -0.132330356726E+04    0.24688E-04   -0.41141E-04  4768   0.759E-03    0.201E-02
DAV:   4    -0.132330355994E+04    0.73198E-05   -0.35457E-05  4736   0.247E-03    0.124E-02
DAV:   5    -0.132330355961E+04    0.33148E-06   -0.11287E-05  5408   0.143E-03    0.249E-03
DAV:   6    -0.132330355989E+04   -0.28037E-06   -0.10807E-06  4320   0.470E-04    0.103E-03
DAV:   7    -0.132330356039E+04   -0.50392E-06   -0.18557E-07  4000   0.224E-04    0.652E-04
DAV:   8    -0.132330356106E+04   -0.66307E-06   -0.43174E-08  3648   0.150E-04    0.245E-04
DAV:   9    -0.132330356165E+04   -0.59165E-06   -0.24977E-08  3552   0.108E-04    0.183E-04
DAV:  10    -0.132330356232E+04   -0.66875E-06   -0.24960E-08  3808   0.928E-05    0.905E-05
DAV:  11    -0.132330356273E+04   -0.41019E-06   -0.12948E-08  3488   0.830E-05    0.708E-05
DAV:  12    -0.132330356297E+04   -0.24113E-06   -0.64696E-09  3328   0.794E-05    0.534E-05
DAV:  13    -0.132330356312E+04   -0.14543E-06   -0.42777E-09  3264   0.754E-05    0.307E-05
DAV:  14    -0.132330356321E+04   -0.91473E-07   -0.25669E-09  3200   0.581E-05    0.270E-05
DAV:  15    -0.132330356326E+04   -0.50117E-07   -0.13807E-09  3136   0.447E-05    0.185E-05
DAV:  16    -0.132330356327E+04   -0.17229E-07   -0.16128E-10  3072   0.315E-05    0.920E-06
DAV:  17    -0.132330356329E+04   -0.12456E-07    0.31176E-10  3072   0.204E-05    0.113E-05
DAV:  18    -0.132330356329E+04   -0.37980E-08    0.64025E-10  3072   0.154E-05
  22 F= -.13421288E+04 E0= -.13421288E+04  d E =-.430658E-03  mag=    -0.0000
       N       E                     dE             d eps       ncg     rms          rms(c)
DAV:   1    -0.132330280868E+04    0.75461E-03   -0.74938E-02  5120   0.976E-02    0.992E-02
DAV:   2    -0.132330276013E+04    0.48550E-04   -0.77492E-04  5312   0.121E-02    0.590E-02
DAV:   3    -0.132330274566E+04    0.14467E-04   -0.20822E-04  5696   0.668E-03    0.177E-02
DAV:   4    -0.132330274297E+04    0.26915E-05   -0.22643E-05  6208   0.268E-03    0.804E-03
DAV:   5    -0.132330274423E+04   -0.12607E-05   -0.27237E-06  4896   0.922E-04    0.270E-03
DAV:   6    -0.132330274471E+04   -0.47956E-06   -0.58923E-07  5344   0.450E-04    0.113E-03
DAV:   7    -0.132330274519E+04   -0.48224E-06   -0.14902E-07  4224   0.240E-04    0.385E-04
DAV:   8    -0.132330274577E+04   -0.58462E-06   -0.36934E-08  3744   0.128E-04    0.229E-04
DAV:   9    -0.132330274610E+04   -0.32899E-06   -0.97750E-09  3392   0.804E-05    0.185E-04
DAV:  10    -0.132330274654E+04   -0.44056E-06   -0.15877E-08  3680   0.877E-05    0.772E-05
DAV:  11    -0.132330274683E+04   -0.28622E-06   -0.84883E-09  3392   0.744E-05    0.731E-05
DAV:  12    -0.132330274700E+04   -0.17097E-06   -0.46695E-09  3264   0.780E-05    0.522E-05
DAV:  13    -0.132330274712E+04   -0.11956E-06   -0.49047E-09  3296   0.103E-04    0.306E-05
DAV:  14    -0.132330274719E+04   -0.67477E-07   -0.29329E-09  3200   0.837E-05    0.184E-05
DAV:  15    -0.132330274722E+04   -0.36176E-07   -0.76519E-10  3072   0.435E-05    0.136E-05
DAV:  16    -0.132330274725E+04   -0.24069E-07   -0.76620E-11  3072   0.313E-05    0.940E-06
DAV:  17    -0.132330274726E+04   -0.76252E-08    0.45087E-10  3072   0.198E-05
  23 F= -.13421284E+04 E0= -.13421284E+04  d E =0.456103E-03  mag=    -0.0000
       N       E                     dE             d eps       ncg     rms          rms(c)
DAV:   1    -0.132330330795E+04   -0.56070E-03   -0.83236E-02  5120   0.944E-02    0.142E-01
DAV:   2    -0.132330306058E+04    0.24737E-03   -0.14850E-03  5728   0.179E-02    0.772E-02
DAV:   3    -0.132330302179E+04    0.38797E-04   -0.38969E-04  5824   0.881E-03    0.270E-02
DAV:   4    -0.132330302018E+04    0.16034E-05   -0.33334E-05  6208   0.336E-03    0.114E-02
DAV:   5    -0.132330302176E+04   -0.15738E-05   -0.52207E-06  6112   0.136E-03    0.352E-03
DAV:   6    -0.132330302194E+04   -0.18600E-06   -0.14961E-06  5184   0.652E-04    0.160E-03
DAV:   7    -0.132330302220E+04   -0.25259E-06   -0.21745E-07  4192   0.247E-04    0.814E-04
DAV:   8    -0.132330302257E+04   -0.37847E-06   -0.75744E-08  3968   0.150E-04    0.338E-04
DAV:   9    -0.132330302278E+04   -0.20386E-06   -0.19816E-08  3552   0.952E-05    0.182E-04
DAV:  10    -0.132330302298E+04   -0.19939E-06   -0.93074E-09  3488   0.669E-05    0.139E-04
DAV:  11    -0.132330302317E+04   -0.18992E-06   -0.51163E-09  3424   0.540E-05    0.677E-05
DAV:  12    -0.132330302331E+04   -0.14246E-06   -0.50678E-09  3456   0.519E-05    0.539E-05
DAV:  13    -0.132330302339E+04   -0.79774E-07   -0.18433E-09  3200   0.423E-05    0.390E-05
DAV:  14    -0.132330302346E+04   -0.73996E-07   -0.28282E-09  3328   0.428E-05    0.245E-05
DAV:  15    -0.132330302348E+04   -0.15847E-07   -0.40407E-10  3072   0.359E-05    0.173E-05
DAV:  16    -0.132330302349E+04   -0.97061E-08   -0.94852E-12  3072   0.270E-05
  24 F= -.13421285E+04 E0= -.13421285E+04  d E =-.167047E-03  mag=    -0.0000
       N       E                     dE             d eps       ncg     rms          rms(c)
DAV:   1    -0.132330385280E+04   -0.82932E-03   -0.75035E-02  5120   0.909E-02    0.112E-01
DAV:   2    -0.132330374045E+04    0.11235E-03   -0.76934E-04  5312   0.126E-02    0.622E-02
DAV:   3    -0.132330372295E+04    0.17503E-04   -0.22468E-04  5760   0.688E-03    0.179E-02
DAV:   4    -0.132330372247E+04    0.47586E-06   -0.21213E-05  5888   0.246E-03    0.833E-03
DAV:   5    -0.132330372316E+04   -0.68710E-06   -0.30706E-06  5568   0.108E-03    0.264E-03
DAV:   6    -0.132330372341E+04   -0.24926E-06   -0.84853E-07  4608   0.478E-04    0.107E-03
DAV:   7    -0.132330372368E+04   -0.27318E-06   -0.13316E-07  3968   0.221E-04    0.494E-04
DAV:   8    -0.132330372404E+04   -0.36399E-06   -0.44885E-08  3712   0.124E-04    0.264E-04
DAV:   9    -0.132330372429E+04   -0.24843E-06   -0.11409E-08  3392   0.784E-05    0.148E-04
DAV:  10    -0.132330372461E+04   -0.32160E-06   -0.13006E-08  3456   0.803E-05    0.117E-04
DAV:  11    -0.132330372487E+04   -0.26026E-06   -0.10201E-08  3520   0.945E-05    0.668E-05
DAV:  12    -0.132330372502E+04   -0.14986E-06   -0.67459E-09  3264   0.100E-04    0.621E-05
DAV:  13    -0.132330372511E+04   -0.85784E-07   -0.42856E-09  3200   0.855E-05    0.418E-05
DAV:  14    -0.132330372518E+04   -0.65222E-07   -0.29063E-09  3232   0.629E-05    0.217E-05
DAV:  15    -0.132330372520E+04   -0.21595E-07   -0.85597E-10  3072   0.417E-05    0.160E-05
DAV:  16    -0.132330372521E+04   -0.13795E-07   -0.12427E-10  3072   0.300E-05    0.902E-06
DAV:  17    -0.132330372522E+04   -0.81054E-08    0.27979E-10  3072   0.207E-05
  25 F= -.13421290E+04 E0= -.13421290E+04  d E =-.523574E-03  mag=    -0.0000
       N       E                     dE             d eps       ncg     rms          rms(c)
DAV:   1    -0.132330290382E+04    0.82139E-03   -0.73119E-02  5120   0.920E-02    0.102E-01
DAV:   2    -0.132330284889E+04    0.54933E-04   -0.69553E-04  5536   0.114E-02    0.594E-02
DAV:   3    -0.132330283464E+04    0.14244E-04   -0.23708E-04  5664   0.774E-03    0.154E-02
DAV:   4    -0.132330283164E+04    0.30030E-05   -0.22058E-05  5984   0.266E-03    0.866E-03
DAV:   5    -0.132330283195E+04   -0.30939E-06   -0.52362E-06  5568   0.128E-03    0.245E-03
DAV:   6    -0.132330283211E+04   -0.16038E-06   -0.77172E-07  4960   0.511E-04    0.101E-03
DAV:   7    -0.132330283248E+04   -0.37483E-06   -0.11438E-07  3904   0.211E-04    0.506E-04
DAV:   8    -0.132330283294E+04   -0.45724E-06   -0.42001E-08  3680   0.145E-04    0.263E-04
DAV:   9    -0.132330283337E+04   -0.43177E-06   -0.20367E-08  3584   0.117E-04    0.147E-04
DAV:  10    -0.132330283382E+04   -0.44599E-06   -0.21509E-08  3840   0.120E-04    0.120E-04
DAV:  11    -0.132330283420E+04   -0.38296E-06   -0.20940E-08  3904   0.151E-04    0.628E-05
DAV:  12    -0.132330283440E+04   -0.20003E-06   -0.13509E-08  3872   0.176E-04    0.576E-05
DAV:  13    -0.132330283451E+04   -0.10809E-06   -0.62382E-09  3424   0.142E-04    0.298E-05
DAV:  14    -0.132330283459E+04   -0.81942E-07   -0.19508E-09  3264   0.685E-05    0.206E-05
DAV:  15    -0.132330283465E+04   -0.52372E-07   -0.54403E-10  3072   0.433E-05    0.119E-05
DAV:  16    -0.132330283467E+04   -0.23108E-07    0.62398E-11  3072   0.334E-05    0.815E-06
DAV:  17    -0.132330283468E+04   -0.12020E-07    0.54087E-10  3072   0.197E-05    0.584E-06
DAV:  18    -0.132330283469E+04   -0.12369E-07    0.61640E-10  3072   0.165E-05    0.360E-06
DAV:  19    -0.132330283470E+04   -0.36089E-08    0.82268E-10  2944   0.116E-05
  26 F= -.13421284E+04 E0= -.13421284E+04  d E =0.679126E-03  mag=    -0.0000
       N       E                     dE             d eps       ncg     rms          rms(c)
DAV:   1    -0.132330313631E+04   -0.30162E-03   -0.83086E-02  5088   0.918E-02    0.147E-01
DAV:   2    -0.132330282744E+04    0.30887E-03   -0.15161E-03  5984   0.186E-02    0.755E-02
DAV:   3    -0.132330278517E+04    0.42270E-04   -0.32917E-04  5728   0.812E-03    0.279E-02
DAV:   4    -0.132330278386E+04    0.13143E-05   -0.25749E-05  6208   0.286E-03    0.111E-02
DAV:   5    -0.132330278447E+04   -0.61201E-06   -0.54629E-06  5760   0.132E-03    0.297E-03
DAV:   6    -0.132330278458E+04   -0.10933E-06   -0.98415E-07  4928   0.548E-04    0.158E-03
DAV:   7    -0.132330278478E+04   -0.20432E-06   -0.12919E-07  4160   0.220E-04    0.688E-04
DAV:   8    -0.132330278501E+04   -0.22376E-06   -0.41989E-08  3552   0.134E-04    0.247E-04
DAV:   9    -0.132330278512E+04   -0.11081E-06   -0.12037E-08  3456   0.899E-05    0.144E-04
DAV:  10    -0.132330278523E+04   -0.11186E-06   -0.43614E-09  3344   0.589E-05    0.101E-04
DAV:  11    -0.132330278536E+04   -0.12493E-06   -0.43621E-09  3328   0.623E-05    0.468E-05
DAV:  12    -0.132330278544E+04   -0.85493E-07   -0.31775E-09  3264   0.566E-05    0.412E-05
DAV:  13    -0.132330278549E+04   -0.49738E-07   -0.15412E-09  3136   0.475E-05    0.303E-05
DAV:  14    -0.132330278552E+04   -0.32524E-07   -0.11168E-09  3072   0.390E-05    0.135E-05
DAV:  15    -0.132330278554E+04   -0.11642E-07   -0.13762E-10  3072   0.292E-05    0.102E-05
DAV:  16    -0.132330278554E+04   -0.70868E-08    0.24028E-10  3072   0.219E-05
  27 F= -.13421284E+04 E0= -.13421284E+04  d E =0.183524E-04  mag=     0.0000
       N       E                     dE             d eps       ncg     rms          rms(c)
DAV:   1    -0.132330370245E+04   -0.91692E-03   -0.73866E-02  4992   0.904E-02    0.111E-01
DAV:   2    -0.132330357483E+04    0.12762E-03   -0.72856E-04  5536   0.127E-02    0.603E-02
DAV:   3    -0.132330355928E+04    0.15555E-04   -0.21584E-04  5952   0.701E-03    0.191E-02
DAV:   4    -0.132330355906E+04    0.21509E-06   -0.19968E-05  6208   0.262E-03    0.811E-03
DAV:   5    -0.132330355984E+04   -0.77815E-06   -0.30985E-06  5856   0.118E-03    0.236E-03
DAV:   6    -0.132330356003E+04   -0.19118E-06   -0.70574E-07  5248   0.497E-04    0.104E-03
DAV:   7    -0.132330356033E+04   -0.29871E-06   -0.12240E-07  4032   0.222E-04    0.456E-04
DAV:   8    -0.132330356065E+04   -0.31608E-06   -0.27197E-08  3520   0.121E-04    0.248E-04
DAV:   9    -0.132330356095E+04   -0.30290E-06   -0.14498E-08  3520   0.112E-04    0.145E-04
DAV:  10    -0.132330356126E+04   -0.30440E-06   -0.10436E-08  3520   0.871E-05    0.949E-05
DAV:  11    -0.132330356152E+04   -0.26627E-06   -0.10963E-08  3600   0.920E-05    0.590E-05
DAV:  12    -0.132330356169E+04   -0.17099E-06   -0.81773E-09  3392   0.104E-04    0.539E-05
DAV:  13    -0.132330356177E+04   -0.79512E-07   -0.43905E-09  3200   0.885E-05    0.322E-05
DAV:  14    -0.132330356183E+04   -0.62661E-07   -0.31719E-09  3264   0.597E-05    0.205E-05
DAV:  15    -0.132330356185E+04   -0.19107E-07   -0.74677E-10  3072   0.398E-05    0.176E-05
DAV:  16    -0.132330356187E+04   -0.11525E-07   -0.13601E-10  3072   0.304E-05    0.849E-06
DAV:  17    -0.132330356187E+04   -0.29686E-08    0.26366E-10  3072   0.231E-05
  28 F= -.13421289E+04 E0= -.13421289E+04  d E =-.555959E-03  mag=     0.0000
       N       E                     dE             d eps       ncg     rms          rms(c)
DAV:   1    -0.132330158147E+04    0.19804E-02   -0.27911E-01  5056   0.217E-01    0.124E-01
DAV:   2    -0.132330152462E+04    0.56858E-04   -0.21536E-03  5344   0.209E-02    0.744E-02
DAV:   3    -0.132330145598E+04    0.68633E-04   -0.41141E-04  5696   0.894E-03    0.230E-02
DAV:   4    -0.132330145755E+04   -0.15711E-05   -0.70733E-05  6208   0.340E-03    0.899E-03
DAV:   5    -0.132330145838E+04   -0.82230E-06   -0.49364E-06  5472   0.114E-03    0.385E-03
DAV:   6    -0.132330145880E+04   -0.42048E-06   -0.16078E-06  4864   0.742E-04    0.138E-03
DAV:   7    -0.132330145943E+04   -0.63165E-06   -0.25529E-07  4288   0.300E-04    0.812E-04
DAV:   8    -0.132330146019E+04   -0.75717E-06   -0.10842E-07  4160   0.194E-04    0.357E-04
DAV:   9    -0.132330146081E+04   -0.62761E-06   -0.27596E-08  3616   0.110E-04    0.205E-04
DAV:  10    -0.132330146149E+04   -0.68126E-06   -0.19808E-08  3616   0.890E-05    0.132E-04
DAV:  11    -0.132330146241E+04   -0.91453E-06   -0.51497E-08  4160   0.126E-04    0.832E-05
DAV:  12    -0.132330146273E+04   -0.32228E-06   -0.90319E-09  3520   0.828E-05    0.607E-05
DAV:  13    -0.132330146301E+04   -0.27481E-06   -0.81536E-09  3488   0.757E-05    0.396E-05
DAV:  14    -0.132330146312E+04   -0.11448E-06   -0.19423E-09  3136   0.581E-05    0.310E-05
DAV:  15    -0.132330146321E+04   -0.91983E-07   -0.18068E-09  3136   0.513E-05    0.194E-05
DAV:  16    -0.132330146326E+04   -0.49316E-07   -0.73027E-10  3072   0.494E-05    0.164E-05
DAV:  17    -0.132330146329E+04   -0.25757E-07   -0.33178E-11  3072   0.356E-05    0.101E-05
DAV:  18    -0.132330146331E+04   -0.17506E-07    0.43129E-10  3072   0.232E-05    0.942E-06
DAV:  19    -0.132330146331E+04   -0.53260E-08    0.76165E-10  3072   0.138E-05
  29 F= -.13421269E+04 E0= -.13421269E+04  d E =0.196717E-02  mag=    -0.0000
       N       E                     dE             d eps       ncg     rms          rms(c)
DAV:   1    -0.132330140709E+04    0.56217E-04   -0.50410E-01  4992   0.298E-01    0.150E-01
DAV:   2    -0.132330123594E+04    0.17115E-03   -0.24726E-03  5280   0.232E-02    0.909E-02
DAV:   3    -0.132330111414E+04    0.12180E-03   -0.71312E-04  5504   0.109E-02    0.157E-02
DAV:   4    -0.132330112122E+04   -0.70765E-05   -0.85864E-05  6016   0.319E-03    0.834E-03
DAV:   5    -0.132330112209E+04   -0.87149E-06   -0.43696E-06  5504   0.904E-04    0.383E-03
DAV:   6    -0.132330112264E+04   -0.54491E-06   -0.11812E-06  4736   0.587E-04    0.126E-03
DAV:   7    -0.132330112323E+04   -0.59207E-06   -0.29699E-07  3904   0.262E-04    0.632E-04
DAV:   8    -0.132330112369E+04   -0.45547E-06   -0.50314E-08  3648   0.138E-04    0.341E-04
DAV:   9    -0.132330112429E+04   -0.60750E-06   -0.23806E-08  3648   0.109E-04    0.175E-04
DAV:  10    -0.132330112485E+04   -0.56019E-06   -0.20569E-08  3824   0.107E-04    0.115E-04
DAV:  11    -0.132330112530E+04   -0.44503E-06   -0.17873E-08  3600   0.119E-04    0.618E-05
DAV:  12    -0.132330112547E+04   -0.17283E-06   -0.60373E-09  3264   0.115E-04    0.478E-05
DAV:  13    -0.132330112564E+04   -0.17363E-06   -0.72105E-09  3424   0.959E-05    0.260E-05
DAV:  14    -0.132330112569E+04   -0.49287E-07   -0.14438E-09  3072   0.567E-05    0.201E-05
DAV:  15    -0.132330112574E+04   -0.44529E-07   -0.97041E-10  3072   0.449E-05    0.136E-05
DAV:  16    -0.132330112576E+04   -0.21304E-07   -0.32004E-10  3072   0.394E-05    0.139E-05
DAV:  17    -0.132330112577E+04   -0.62719E-08    0.38074E-10  3072   0.201E-05
  30 F= -.13421266E+04 E0= -.13421266E+04  d E =0.353655E-03  mag=     0.0000
       N       E                     dE             d eps       ncg     rms          rms(c)
DAV:   1    -0.132330185073E+04   -0.72497E-03   -0.50139E-01  4992   0.302E-01    0.153E-01
DAV:   2    -0.132330159834E+04    0.25239E-03   -0.23857E-03  5440   0.245E-02    0.931E-02
DAV:   3    -0.132330144926E+04    0.14908E-03   -0.88465E-04  5600   0.137E-02    0.135E-02
DAV:   4    -0.132330145760E+04   -0.83364E-05   -0.12722E-04  5536   0.403E-03    0.878E-03
DAV:   5    -0.132330145782E+04   -0.22372E-06   -0.97161E-06  6016   0.182E-03    0.420E-03
DAV:   6    -0.132330145867E+04   -0.84664E-06   -0.87958E-07  5632   0.796E-04    0.182E-03
DAV:   7    -0.132330145972E+04   -0.10571E-05   -0.35492E-07  5088   0.520E-04    0.552E-04
DAV:   8    -0.132330146057E+04   -0.84632E-06   -0.81172E-08  4000   0.228E-04    0.357E-04
DAV:   9    -0.132330146157E+04   -0.10009E-05   -0.33788E-08  4032   0.156E-04    0.222E-04
DAV:  10    -0.132330146264E+04   -0.10694E-05   -0.44694E-08  4000   0.178E-04    0.128E-04
DAV:  11    -0.132330146323E+04   -0.59378E-06   -0.22684E-08  3744   0.132E-04    0.926E-05
DAV:  12    -0.132330146357E+04   -0.34017E-06   -0.84425E-09  3360   0.874E-05    0.658E-05
DAV:  13    -0.132330146382E+04   -0.24415E-06   -0.67974E-09  3424   0.763E-05    0.375E-05
DAV:  14    -0.132330146392E+04   -0.99695E-07   -0.24242E-09  3136   0.596E-05    0.255E-05
DAV:  15    -0.132330146400E+04   -0.80094E-07   -0.19777E-09  3104   0.490E-05    0.185E-05
DAV:  16    -0.132330146403E+04   -0.35056E-07   -0.89289E-10  3072   0.455E-05    0.137E-05
DAV:  17    -0.132330146405E+04   -0.11569E-07   -0.18983E-10  3072   0.354E-05    0.838E-06
DAV:  18    -0.132330146405E+04   -0.58644E-08    0.13788E-10  3072   0.233E-05
  31 F= -.13421268E+04 E0= -.13421268E+04  d E =-.213606E-03  mag=    -0.0000
       N       E                     dE             d eps       ncg     rms          rms(c)
DAV:   1    -0.132330104488E+04    0.41917E-03   -0.49824E-01  5120   0.344E-01    0.149E-01
DAV:   2    -0.132330102355E+04    0.21332E-04   -0.41433E-03  5536   0.315E-02    0.993E-02
DAV:   3    -0.132330085925E+04    0.16429E-03   -0.77809E-04  5760   0.142E-02    0.222E-02
DAV:   4    -0.132330087196E+04   -0.12703E-04   -0.15220E-04  5952   0.436E-03    0.934E-03
DAV:   5    -0.132330087310E+04   -0.11415E-05   -0.75782E-06  6144   0.149E-03    0.467E-03
DAV:   6    -0.132330087341E+04   -0.31175E-06   -0.14151E-06  5248   0.921E-04    0.180E-03
DAV:   7    -0.132330087402E+04   -0.60975E-06   -0.50387E-07  5216   0.515E-04    0.592E-04
DAV:   8    -0.132330087450E+04   -0.48098E-06   -0.73620E-08  3904   0.208E-04    0.341E-04
DAV:   9    -0.132330087499E+04   -0.48713E-06   -0.18000E-08  3584   0.124E-04    0.221E-04
DAV:  10    -0.132330087573E+04   -0.74180E-06   -0.39040E-08  4064   0.187E-04    0.115E-04
DAV:  11    -0.132330087610E+04   -0.37420E-06   -0.14035E-08  3536   0.125E-04    0.856E-05
DAV:  12    -0.132330087633E+04   -0.22307E-06   -0.58038E-09  3296   0.901E-05    0.533E-05
DAV:  13    -0.132330087649E+04   -0.16511E-06   -0.46888E-09  3328   0.907E-05    0.344E-05
DAV:  14    -0.132330087659E+04   -0.95009E-07   -0.32415E-09  3232   0.886E-05    0.248E-05
DAV:  15    -0.132330087667E+04   -0.79643E-07   -0.21833E-09  3136   0.670E-05    0.156E-05
DAV:  16    -0.132330087671E+04   -0.39261E-07   -0.86994E-10  3072   0.461E-05    0.116E-05
DAV:  17    -0.132330087673E+04   -0.19965E-07   -0.25946E-10  3072   0.366E-05    0.699E-06
DAV:  18    -0.132330087673E+04   -0.74069E-08    0.21835E-10  3072   0.221E-05
  32 F= -.13421263E+04 E0= -.13421263E+04  d E =0.512179E-03  mag=     0.0000
       N       E                     dE             d eps       ncg     rms          rms(c)
DAV:   1    -0.132330060200E+04    0.27473E-03   -0.50342E-01  5120   0.340E-01    0.165E-01
DAV:   2    -0.132330041578E+04    0.18622E-03   -0.32057E-03  5440   0.289E-02    0.974E-02
DAV:   3    -0.132330027670E+04    0.13908E-03   -0.77789E-04  5568   0.136E-02    0.269E-02
DAV:   4    -0.132330027937E+04   -0.26724E-05   -0.10797E-04  5984   0.466E-03    0.125E-02
DAV:   5    -0.132330028026E+04   -0.88592E-06   -0.10577E-05  6400   0.177E-03    0.446E-03
DAV:   6    -0.132330028096E+04   -0.70683E-06   -0.19186E-06  4800   0.787E-04    0.186E-03
DAV:   7    -0.132330028207E+04   -0.11098E-05   -0.49213E-07  4992   0.361E-04    0.771E-04
DAV:   8    -0.132330028317E+04   -0.10973E-05   -0.11440E-07  3936   0.197E-04    0.362E-04
DAV:   9    -0.132330028410E+04   -0.92653E-06   -0.34578E-08  3712   0.121E-04    0.226E-04
DAV:  10    -0.132330028519E+04   -0.10949E-05   -0.39442E-08  4128   0.114E-04    0.156E-04
DAV:  11    -0.132330028617E+04   -0.97528E-06   -0.36623E-08  4064   0.117E-04    0.888E-05
DAV:  12    -0.132330028668E+04   -0.51709E-06   -0.14476E-08  3584   0.899E-05    0.689E-05
DAV:  13    -0.132330028699E+04   -0.30546E-06   -0.73743E-09  3424   0.759E-05    0.465E-05
DAV:  14    -0.132330028722E+04   -0.22803E-06   -0.67895E-09  3488   0.717E-05    0.243E-05
DAV:  15    -0.132330028732E+04   -0.99957E-07   -0.23675E-09  3072   0.645E-05    0.175E-05
DAV:  16    -0.132330028737E+04   -0.50684E-07   -0.16618E-09  3072   0.638E-05    0.133E-05
DAV:  17    -0.132330028739E+04   -0.18787E-07   -0.27902E-10  3072   0.408E-05    0.913E-06
DAV:  18    -0.132330028741E+04   -0.17360E-07    0.26683E-10  3072   0.230E-05    0.632E-06
DAV:  19    -0.132330028741E+04   -0.31723E-08    0.61391E-10  3072   0.152E-05
  33 F= -.13421258E+04 E0= -.13421258E+04  d E =0.493837E-03  mag=    -0.0000
       N       E                     dE             d eps       ncg     rms          rms(c)
DAV:   1    -0.132330386034E+04   -0.35729E-02   -0.49461E-01  5120   0.394E-01    0.178E-01
DAV:   2    -0.132330333428E+04    0.52605E-03   -0.33577E-03  5760   0.367E-02    0.897E-02
DAV:   3    -0.132330323341E+04    0.10087E-03   -0.97413E-04  6144   0.185E-02    0.343E-02
DAV:   4    -0.132330323026E+04    0.31490E-05   -0.12985E-04  6368   0.599E-03    0.165E-02
DAV:   5    -0.132330323154E+04   -0.12800E-05   -0.15733E-05  5504   0.275E-03    0.496E-03
DAV:   6    -0.132330323146E+04    0.85463E-07   -0.43105E-06  6144   0.144E-03    0.221E-03
DAV:   7    -0.132330323209E+04   -0.63366E-06   -0.55143E-07  5728   0.551E-04    0.127E-03
DAV:   8    -0.132330323320E+04   -0.11046E-05   -0.25379E-07  5248   0.443E-04    0.577E-04
DAV:   9    -0.132330323412E+04   -0.92115E-06   -0.74081E-08  4640   0.284E-04    0.405E-04
DAV:  10    -0.132330323535E+04   -0.12319E-05   -0.56287E-08  4224   0.263E-04    0.273E-04
DAV:  11    -0.132330323676E+04   -0.14070E-05   -0.93977E-08  4352   0.313E-04    0.197E-04
DAV:  12    -0.132330323752E+04   -0.76756E-06   -0.52918E-08  4368   0.213E-04    0.154E-04
DAV:  13    -0.132330323796E+04   -0.43800E-06   -0.10451E-08  3520   0.981E-05    0.938E-05
DAV:  14    -0.132330323837E+04   -0.40344E-06   -0.11829E-08  3584   0.849E-05    0.568E-05
DAV:  15    -0.132330323857E+04   -0.20444E-06   -0.32874E-09  3296   0.600E-05    0.348E-05
DAV:  16    -0.132330323873E+04   -0.16532E-06   -0.31652E-09  3264   0.513E-05    0.332E-05
DAV:  17    -0.132330323880E+04   -0.68190E-07   -0.82239E-10  3072   0.468E-05    0.230E-05
DAV:  18    -0.132330323887E+04   -0.62995E-07   -0.11759E-09  3136   0.472E-05    0.192E-05
DAV:  19    -0.132330323888E+04   -0.12631E-07    0.10644E-10  3072   0.301E-05    0.196E-05
DAV:  20    -0.132330323889E+04   -0.67957E-08    0.62156E-10  3072   0.185E-05
  34 F= -.13421291E+04 E0= -.13421291E+04  d E =-.332225E-02  mag=    -0.0000
       N       E                     dE             d eps       ncg     rms          rms(c)
DAV:   1    -0.132330099337E+04    0.22455E-02   -0.47326E-01  5120   0.398E-01    0.134E-01
DAV:   2    -0.132330113172E+04   -0.13835E-03   -0.42447E-03  5984   0.330E-02    0.850E-02
DAV:   3    -0.132330105324E+04    0.78482E-04   -0.43662E-04  6336   0.126E-02    0.273E-02
DAV:   4    -0.132330106014E+04   -0.69066E-05   -0.79867E-05  5856   0.473E-03    0.110E-02
DAV:   5    -0.132330106034E+04   -0.19172E-06   -0.12232E-05  5952   0.239E-03    0.383E-03
DAV:   6    -0.132330106175E+04   -0.14098E-05   -0.18641E-06  6368   0.120E-03    0.181E-03
DAV:   7    -0.132330106327E+04   -0.15201E-05   -0.23684E-07  5408   0.459E-04    0.890E-04
DAV:   8    -0.132330106542E+04   -0.21541E-05   -0.11366E-07  4288   0.271E-04    0.428E-04
DAV:   9    -0.132330106748E+04   -0.20623E-05   -0.75181E-08  4320   0.214E-04    0.316E-04
DAV:  10    -0.132330107023E+04   -0.27447E-05   -0.14085E-07  4352   0.285E-04    0.200E-04
DAV:  11    -0.132330107151E+04   -0.12783E-05   -0.57464E-08  4480   0.191E-04    0.165E-04
DAV:  12    -0.132330107231E+04   -0.80682E-06   -0.16337E-08  3648   0.114E-04    0.964E-05
DAV:  13    -0.132330107291E+04   -0.60146E-06   -0.13763E-08  3584   0.103E-04    0.749E-05
DAV:  14    -0.132330107319E+04   -0.27349E-06   -0.51698E-09  3360   0.842E-05    0.452E-05
DAV:  15    -0.132330107341E+04   -0.22521E-06   -0.43964E-09  3296   0.678E-05    0.330E-05
DAV:  16    -0.132330107350E+04   -0.89960E-07   -0.18165E-09  3072   0.581E-05    0.219E-05
DAV:  17    -0.132330107355E+04   -0.48516E-07   -0.12799E-09  3072   0.520E-05    0.137E-05
DAV:  18    -0.132330107356E+04   -0.13082E-07   -0.35020E-10  3072   0.372E-05    0.149E-05
DAV:  19    -0.132330107357E+04   -0.67084E-08    0.32874E-10  3072   0.215E-05
  35 F= -.13421267E+04 E0= -.13421267E+04  d E =0.244717E-02  mag=    -0.0000
       N       E                     dE             d eps       ncg     rms          rms(c)
DAV:   1    -0.132329996826E+04    0.11053E-02   -0.50133E-01  4992   0.340E-01    0.161E-01
DAV:   2    -0.132329996178E+04    0.64822E-05   -0.35163E-03  5504   0.297E-02    0.996E-02
DAV:   3    -0.132329986476E+04    0.97014E-04   -0.80183E-04  5728   0.141E-02    0.301E-02
DAV:   4    -0.132329986337E+04    0.13940E-05   -0.91761E-05  5920   0.439E-03    0.144E-02
DAV:   5    -0.132329986480E+04   -0.14291E-05   -0.13026E-05  6528   0.191E-03    0.463E-03
DAV:   6    -0.132329986622E+04   -0.14227E-05   -0.19223E-06  4784   0.769E-04    0.213E-03
DAV:   7    -0.132329986858E+04   -0.23582E-05   -0.64075E-07  5152   0.417E-04    0.662E-04
DAV:   8    -0.132329987062E+04   -0.20385E-05   -0.14699E-07  4320   0.227E-04    0.440E-04
DAV:   9    -0.132329987233E+04   -0.17176E-05   -0.51880E-08  4176   0.138E-04    0.274E-04
DAV:  10    -0.132329987464E+04   -0.23054E-05   -0.11748E-07  4480   0.180E-04    0.167E-04
DAV:  11    -0.132329987554E+04   -0.90530E-06   -0.28147E-08  4144   0.111E-04    0.129E-04
DAV:  12    -0.132329987629E+04   -0.74909E-06   -0.19065E-08  3664   0.879E-05    0.746E-05
DAV:  13    -0.132329987684E+04   -0.54856E-06   -0.17907E-08  3888   0.870E-05    0.465E-05
DAV:  14    -0.132329987705E+04   -0.20661E-06   -0.31598E-09  3328   0.598E-05    0.334E-05
DAV:  15    -0.132329987717E+04   -0.11787E-06   -0.19243E-09  3168   0.479E-05    0.232E-05
DAV:  16    -0.132329987726E+04   -0.95635E-07   -0.13844E-09  3136   0.443E-05    0.121E-05
DAV:  17    -0.132329987730E+04   -0.35754E-07   -0.45164E-10  3072   0.373E-05    0.102E-05
DAV:  18    -0.132329987731E+04   -0.14770E-07    0.96887E-11  3072   0.284E-05    0.722E-06
DAV:  19    -0.132329987733E+04   -0.15338E-07    0.39504E-10  3072   0.209E-05    0.626E-06
DAV:  20    -0.132329987733E+04   -0.35652E-08    0.65074E-10  3040   0.121E-05
  36 F= -.13421255E+04 E0= -.13421255E+04  d E =0.113857E-02  mag=    -0.0000
       N       E                     dE             d eps       ncg     rms          rms(c)
DAV:   1    -0.132330309593E+04   -0.32186E-02   -0.47800E-01  5120   0.345E-01    0.171E-01
DAV:   2    -0.132330301464E+04    0.81297E-04   -0.33731E-03  5728   0.311E-02    0.101E-01
DAV:   3    -0.132330291598E+04    0.98662E-04   -0.92890E-04  5664   0.149E-02    0.298E-02
DAV:   4    -0.132330291455E+04    0.14266E-05   -0.10637E-04  5952   0.485E-03    0.177E-02
DAV:   5    -0.132330291415E+04    0.39871E-06   -0.21605E-05  5984   0.251E-03    0.685E-03
DAV:   6    -0.132330291503E+04   -0.87621E-06   -0.31404E-06  5536   0.101E-03    0.243E-03
DAV:   7    -0.132330291647E+04   -0.14404E-05   -0.80008E-07  5344   0.502E-04    0.864E-04
DAV:   8    -0.132330291799E+04   -0.15187E-05   -0.12267E-07  4064   0.228E-04    0.566E-04
DAV:   9    -0.132330291999E+04   -0.20017E-05   -0.86472E-08  4320   0.184E-04    0.264E-04
DAV:  10    -0.132330292178E+04   -0.17929E-05   -0.72727E-08  4384   0.166E-04    0.223E-04
DAV:  11    -0.132330292311E+04   -0.13334E-05   -0.46891E-08  4192   0.127E-04    0.148E-04
DAV:  12    -0.132330292401E+04   -0.89475E-06   -0.30653E-08  3968   0.100E-04    0.746E-05
DAV:  13    -0.132330292436E+04   -0.35105E-06   -0.59424E-09  3488   0.629E-05    0.669E-05
DAV:  14    -0.132330292462E+04   -0.26348E-06   -0.48466E-09  3424   0.558E-05    0.374E-05
DAV:  15    -0.132330292478E+04   -0.15250E-06   -0.19894E-09  3136   0.460E-05    0.215E-05
DAV:  16    -0.132330292489E+04   -0.11062E-06   -0.19802E-09  3136   0.470E-05    0.141E-05
DAV:  17    -0.132330292492E+04   -0.38388E-07   -0.45912E-10  3072   0.417E-05    0.122E-05
DAV:  18    -0.132330292495E+04   -0.24331E-07   -0.43831E-11  3072   0.323E-05    0.802E-06
DAV:  19    -0.132330292497E+04   -0.18801E-07    0.34251E-10  3072   0.228E-05    0.943E-06
DAV:  20    -0.132330292497E+04   -0.80036E-09    0.67828E-10  3072   0.140E-05
  37 F= -.13421285E+04 E0= -.13421285E+04  d E =-.301337E-02  mag=    -0.0000
