       N       E                     dE             d eps       ncg     rms          rms(c)
DAV:   1    -0.127859847312E+04   -0.12786E+04   -0.12583E+00  6368   0.963E-01    0.950E-01
DAV:   2    -0.128033643254E+04   -0.17380E+01   -0.11232E+00  6272   0.934E-01    0.400E-01
DAV:   3    -0.128034623850E+04   -0.98060E-02   -0.37990E-02  6784   0.219E-01    0.275E-01
DAV:   4    -0.128034626900E+04   -0.30496E-04   -0.19340E-03  5792   0.545E-02    0.223E-01
DAV:   5    -0.128034627617E+04   -0.71702E-05   -0.17761E-04  6784   0.173E-02    0.189E-01
DAV:   6    -0.128034629263E+04   -0.16469E-04   -0.20652E-05  6720   0.690E-03    0.163E-01
DAV:   7    -0.128034630381E+04   -0.11177E-04   -0.22803E-05  6720   0.819E-03    0.129E-01
DAV:   8    -0.128034631162E+04   -0.78108E-05   -0.15459E-05  6336   0.620E-03    0.107E-01
DAV:   9    -0.128034631713E+04   -0.55059E-05   -0.33068E-06  3968   0.308E-03    0.927E-02
DAV:  10    -0.128034632485E+04   -0.77219E-05   -0.25959E-05  6432   0.825E-03    0.542E-02
DAV:  11    -0.128034633057E+04   -0.57157E-05   -0.26403E-05  6752   0.839E-03    0.195E-02
DAV:  12    -0.128034633178E+04   -0.12127E-05   -0.25240E-06  3552   0.236E-03    0.136E-02
DAV:  13    -0.128034633218E+04   -0.40419E-06   -0.11719E-06  3136   0.174E-03
   1 F= -.12989895E+04 E0= -.12989895E+04  d E =-.498964E-13  mag=    -0.0000
