 vasp.5.4.4.18Apr17-6-g9f103f2a35 (build Mar 06 2019 16:23:31) complex          
  
 executed on             LinuxIFC date 2021.11.02  06:54:09
 running on  128 total cores
 distrk:  each k-point on  128 cores,    1 groups
 distr:  one band on NCORES_PER_BAND=  16 cores,    8 groups


--------------------------------------------------------------------------------------------------------


 INCAR:
 POTCAR:    PAW_PBE Zr_sv 04Jan2005               
 POTCAR:    PAW_PBE O 08Apr2002                   
 POTCAR:    PAW_PBE H 15Jun2001                   
 POTCAR:    PAW_PBE Zr_sv 04Jan2005               
   VRHFIN =Zr: 4s4p5s4d                                                         
   LEXCH  = PE                                                                  
   EATOM  =  1284.2219 eV,   94.3876 Ry                                         
                                                                                
   TITEL  = PAW_PBE Zr_sv 04Jan2005                                             
   LULTRA =        F    use ultrasoft PP ?                                      
   IUNSCR =        1    unscreen: 0-lin 1-nonlin 2-no                           
   RPACOR =    2.200    partial core radius                                     
   POMASS =   91.224; ZVAL   =   12.000    mass and valenz                      
   RCORE  =    2.500    outmost cutoff radius                                   
   RWIGS  =    3.070; RWIGS  =    1.625    wigner-seitz radius (au A)           
   ENMAX  =  229.898; ENMIN  =  172.424 eV                                      
   ICORE  =        3    local potential                                         
   LCOR   =        T    correct aug charges                                     
   LPAW   =        T    paw PP                                                  
   EAUG   =  461.257                                                            
   DEXC   =    0.000                                                            
   RMAX   =    2.561    core radius for proj-oper                               
   RAUG   =    1.300    factor for augmentation sphere                          
   RDEP   =    2.597    radius for radial grids                                 
   RDEPT  =    2.007    core radius for aug-charge                              
                                                                                
   Atomic configuration                                                         
   11 entries                                                                   
     n  l   j            E        occ.                                          
     1  0  0.50    -17820.0161   2.0000                                         
     2  0  0.50     -2467.0882   2.0000                                         
     2  1  1.50     -2199.6095   6.0000                                         
     3  0  0.50      -402.4863   2.0000                                         
     3  1  1.50      -315.3675   6.0000                                         
     3  2  2.50      -172.4472  10.0000                                         
     4  0  0.50       -52.4146   2.0000                                         
     5  0  0.50        -3.8421   1.0000                                         
     4  1  1.50       -30.5054   6.0000                                         
     4  2  2.50        -2.3341   3.0000                                         
     4  3  2.50        -1.3606   0.0000                                         
   Description                                                                  
     l       E           TYP  RCUT    TYP  RCUT                                 
     0    -52.4145962     23  2.200                                             
     0     -3.8421270     23  2.500                                             
     1    -30.5053914     23  2.200                                             
     1     20.4087390     23  2.200                                             
     2     -2.3340816     23  2.500                                             
     2     -0.6120942     23  2.500                                             
     3     -4.0817478     23  2.500                                             
  local pseudopotential read in
  partial core-charges read in
  partial kinetic energy density read in
  atomic valenz-charges read in
  non local Contribution for L=           0  read in
    real space projection operators read in
  non local Contribution for L=           0  read in
    real space projection operators read in
  non local Contribution for L=           1  read in
    real space projection operators read in
  non local Contribution for L=           1  read in
    real space projection operators read in
  non local Contribution for L=           2  read in
    real space projection operators read in
  non local Contribution for L=           2  read in
    real space projection operators read in
    PAW grid and wavefunctions read in
 
   number of l-projection  operators is LMAX  =           6
   number of lm-projection operators is LMMAX =          18
 
 POTCAR:    PAW_PBE O 08Apr2002                   
   VRHFIN =O: s2p4                                                              
   LEXCH  = PE                                                                  
   EATOM  =   432.3788 eV,   31.7789 Ry                                         
                                                                                
   TITEL  = PAW_PBE O 08Apr2002                                                 
   LULTRA =        F    use ultrasoft PP ?                                      
   IUNSCR =        1    unscreen: 0-lin 1-nonlin 2-no                           
   RPACOR =    1.200    partial core radius                                     
   POMASS =   16.000; ZVAL   =    6.000    mass and valenz                      
   RCORE  =    1.520    outmost cutoff radius                                   
   RWIGS  =    1.550; RWIGS  =    0.820    wigner-seitz radius (au A)           
   ENMAX  =  400.000; ENMIN  =  300.000 eV                                      
   ICORE  =        2    local potential                                         
   LCOR   =        T    correct aug charges                                     
   LPAW   =        T    paw PP                                                  
   EAUG   =  605.392                                                            
   DEXC   =    0.000                                                            
   RMAX   =    1.553    core radius for proj-oper                               
   RAUG   =    1.300    factor for augmentation sphere                          
   RDEP   =    1.550    radius for radial grids                                 
   RDEPT  =    1.329    core radius for aug-charge                              
                                                                                
   Atomic configuration                                                         
    4 entries                                                                   
     n  l   j            E        occ.                                          
     1  0  0.50      -514.6923   2.0000                                         
     2  0  0.50       -23.9615   2.0000                                         
     2  1  0.50        -9.0305   4.0000                                         
     3  2  1.50        -9.5241   0.0000                                         
   Description                                                                  
     l       E           TYP  RCUT    TYP  RCUT                                 
     0    -23.9615318     23  1.200                                             
     0     -9.5240782     23  1.200                                             
     1     -9.0304911     23  1.520                                             
     1      8.1634956     23  1.520                                             
     2     -9.5240782      7  1.500                                             
  local pseudopotential read in
  partial core-charges read in
  partial kinetic energy density read in
  kinetic energy density of atom read in
  atomic valenz-charges read in
  non local Contribution for L=           0  read in
    real space projection operators read in
  non local Contribution for L=           0  read in
    real space projection operators read in
  non local Contribution for L=           1  read in
    real space projection operators read in
  non local Contribution for L=           1  read in
    real space projection operators read in
    PAW grid and wavefunctions read in
 
   number of l-projection  operators is LMAX  =           4
   number of lm-projection operators is LMMAX =           8
 
 POTCAR:    PAW_PBE H 15Jun2001                   
   VRHFIN =H: ultrasoft test                                                    
   LEXCH  = PE                                                                  
   EATOM  =    12.4884 eV,    0.9179 Ry                                         
                                                                                
   TITEL  = PAW_PBE H 15Jun2001                                                 
   LULTRA =        F    use ultrasoft PP ?                                      
   IUNSCR =        0    unscreen: 0-lin 1-nonlin 2-no                           
   RPACOR =    0.000    partial core radius                                     
   POMASS =    1.000; ZVAL   =    1.000    mass and valenz                      
   RCORE  =    1.100    outmost cutoff radius                                   
   RWIGS  =    0.700; RWIGS  =    0.370    wigner-seitz radius (au A)           
   ENMAX  =  250.000; ENMIN  =  200.000 eV                                      
   RCLOC  =    0.701    cutoff for local pot                                    
   LCOR   =        T    correct aug charges                                     
   LPAW   =        T    paw PP                                                  
   EAUG   =  400.000                                                            
   RMAX   =    1.123    core radius for proj-oper                               
   RAUG   =    1.200    factor for augmentation sphere                          
   RDEP   =    1.112    radius for radial grids                                 
   RDEPT  =    0.926    core radius for aug-charge                              
                                                                                
   Atomic configuration                                                         
    2 entries                                                                   
     n  l   j            E        occ.                                          
     1  0  0.50        -6.4927   1.0000                                         
     2  1  0.50        -3.4015   0.0000                                         
   Description                                                                  
     l       E           TYP  RCUT    TYP  RCUT                                 
     0     -6.4927494     23  1.100                                             
     0      6.8029130     23  1.100                                             
     1     -4.0817478     23  1.100                                             
  local pseudopotential read in
  atomic valenz-charges read in
  non local Contribution for L=           0  read in
    real space projection operators read in
  non local Contribution for L=           0  read in
    real space projection operators read in
  non local Contribution for L=           1  read in
    real space projection operators read in
    PAW grid and wavefunctions read in
 
   number of l-projection  operators is LMAX  =           3
   number of lm-projection operators is LMMAX =           5
 
 Optimization of the real space projectors (new method)

 maximal supplied QI-value         = 15.12
 optimisation between [QCUT,QGAM] = [ 11.34, 22.83] = [ 36.00,145.93] Ry 
 Optimized for a Real-space Cutoff    1.47 Angstroem

   l    n(q)    QCUT    max X(q) W(low)/X(q) W(high)/X(q)  e(spline) 
   0     10    11.338    12.107    0.38E-04    0.13E-04    0.27E-07
   0     10    11.338     9.948    0.69E-04    0.30E-04    0.38E-07
   1     10    11.338     3.563    0.26E-04    0.18E-04    0.40E-07
   1     10    11.338     4.524    0.25E-03    0.39E-04    0.44E-06
   2      9    11.338    87.261    0.26E-03    0.91E-05    0.26E-06
   2      9    11.338    70.950    0.25E-03    0.91E-05    0.25E-06
 Optimization of the real space projectors (new method)

 maximal supplied QI-value         = 24.76
 optimisation between [QCUT,QGAM] = [ 11.39, 22.77] = [ 36.31,145.25] Ry 
 Optimized for a Real-space Cutoff    1.00 Angstroem

   l    n(q)    QCUT    max X(q) W(low)/X(q) W(high)/X(q)  e(spline) 
   0      7    11.387    20.381    0.39E-03    0.13E-02    0.15E-06
   0      7    11.387    15.268    0.42E-03    0.14E-02    0.17E-06
   1      6    11.387     5.964    0.41E-03    0.11E-02    0.17E-06
   1      6    11.387     5.382    0.39E-03    0.87E-03    0.15E-06
 Optimization of the real space projectors (new method)

 maximal supplied QI-value         = 34.20
 optimisation between [QCUT,QGAM] = [ 11.29, 22.57] = [ 35.68,142.71] Ry 
 Optimized for a Real-space Cutoff    1.16 Angstroem

   l    n(q)    QCUT    max X(q) W(low)/X(q) W(high)/X(q)  e(spline) 
   0      8    11.287    19.460    0.40E-03    0.73E-03    0.16E-06
   0      8    11.287    12.209    0.38E-03    0.70E-03    0.15E-06
   1      7    11.287     4.655    0.22E-03    0.25E-04    0.22E-06
  PAW_PBE Zr_sv 04Jan2005               :
 energy of atom  1       EATOM=-1284.2219
 kinetic energy error for atom=    0.0049 (will be added to EATOM!!)
  PAW_PBE O 08Apr2002                   :
 energy of atom  2       EATOM= -432.3788
 kinetic energy error for atom=    0.0224 (will be added to EATOM!!)
  PAW_PBE H 15Jun2001                   :
 energy of atom  3       EATOM=  -12.4884
 kinetic energy error for atom=    0.0020 (will be added to EATOM!!)
 
 
 POSCAR: Zr   O    H                             
  positions in direct lattice
  velocities in cartesian coordinates
  No initial velocities read in
 exchange correlation table for  LEXCH =        8
   RHO(1)=    0.500       N(1)  =     2000
   RHO(2)=  100.500       N(2)  =     4000

 VTST: version 3.2, (02/03/18)

 CHAIN: initializing optimizer
 
 OPT: Using Conjugate-Gradient optimizer
 OPT: CG, Init
 OPT: CG, FDSTEP      0.005000
 OPT: CG, MAXMOVE      0.200000
 
 CHAIN: Read ICHAIN            2
 
 POSCAR: Zr   O    H                             
  positions in direct lattice
  velocities in cartesian coordinates
  No initial velocities read in
 CHAIN: Running the Dimer method

 Dimer: -----------------
 Dimer: Input Parameters
 Dimer:   Seed      0
 Dimer: RotMax      4
 Dimer:     dR      0.005000
 Dimer:  FNMax      1.000000
 Dimer:  FNMin      0.010000
 Dimer: -----------------
 


--------------------------------------------------------------------------------------------------------


 ion  position               nearest neighbor table
   1  0.088  0.321  0.038-  78 2.10  62 2.10  50 2.18  74 2.19  61 2.26  54 2.30  16 3.37   6 3.50
                            12 3.52  13 3.65
   2  0.338  0.821  0.038-  79 2.10  63 2.10  51 2.18  75 2.19  58 2.26  55 2.30  13 3.37   7 3.50
                             9 3.52  14 3.65
   3  0.588  0.321  0.038-  80 2.10  64 2.10  52 2.18  76 2.19  59 2.26  56 2.30  14 3.37   8 3.50
                            10 3.52  15 3.65
   4  0.838  0.821  0.038-  81 2.10  65 2.10  53 2.18  77 2.19  60 2.26  57 2.30  15 3.37   5 3.50
                            11 3.52  16 3.65
   5  0.070  0.834  0.049-  82 2.07  66 2.10  65 2.18  58 2.19  57 2.22  70 2.30  12 3.37  17 3.46
                             4 3.50  16 3.52   9 3.65
   6  0.320  0.334  0.049-  83 2.06  67 2.10  62 2.18  59 2.19  54 2.22  71 2.30   9 3.37  18 3.48
                             1 3.50  13 3.52  10 3.65
   7  0.570  0.834  0.049-  84 2.06  68 2.10  63 2.18  60 2.19  55 2.22  72 2.30  10 3.37  19 3.48
                             2 3.50  14 3.52  11 3.65
   8  0.820  0.334  0.049-  85 2.08  69 2.10  64 2.18  61 2.19  56 2.22  73 2.30  11 3.37   3 3.50
                            20 3.51  15 3.52  12 3.65
   9  0.238  0.068  0.057-  62 2.10  86 2.16  67 2.18  70 2.19  75 2.22  58 2.30   6 3.37  17 3.48
                            14 3.50  22 3.52   2 3.52   5 3.65
  10  0.488  0.568  0.057-  63 2.10  87 2.17  68 2.18  71 2.19  76 2.22  59 2.30   7 3.37  18 3.48
                            15 3.50   3 3.52  23 3.52   6 3.65
  11  0.738  0.068  0.057-  64 2.10  69 2.18  88 2.18  72 2.19  77 2.22  60 2.30   8 3.37  19 3.47
                            16 3.50   4 3.52  24 3.53   7 3.65
  12  0.988  0.568  0.057-  65 2.10  66 2.18  89 2.18  73 2.19  74 2.22  61 2.30   5 3.37  13 3.50
                             1 3.52  20 3.53  21 3.53   8 3.65
  13  0.220  0.581  0.068-  51 2.10  66 2.10  79 2.18  54 2.19  71 2.26  90 2.26  74 2.30   2 3.37
                            21 3.49  26 3.50  12 3.50  18 3.50   6 3.52   1 3.65
  14  0.470  0.081  0.068-  52 2.10  67 2.10  80 2.18  55 2.19  72 2.26  91 2.27  75 2.30   3 3.37
                            27 3.48  22 3.49   9 3.50  19 3.52   7 3.52   2 3.65
  15  0.720  0.581  0.068-  53 2.10  68 2.10  81 2.18  56 2.19  73 2.26  92 2.27  76 2.30   4 3.37
                            23 3.49  28 3.50  10 3.50   8 3.52  20 3.54   3 3.65
  16  0.970  0.081  0.068-  50 2.10  69 2.10  78 2.18  57 2.19  70 2.26  93 2.27  77 2.30   1 3.37
                            17 3.50  11 3.50  24 3.50  25 3.50   5 3.52   4 3.65
  17  0.106  0.983  0.171-  94 2.09 110 2.13  82 2.16  70 2.19 106 2.20  93 2.23  86 2.31  32 3.40
                             5 3.46   9 3.48  16 3.50  22 3.52  25 3.54  29 3.67
  18  0.356  0.484  0.171-  95 2.09 111 2.13  83 2.16  71 2.19 107 2.19  90 2.23  87 2.30  29 3.37
                             6 3.48  10 3.48  13 3.50  23 3.52  26 3.54  30 3.65
  19  0.608  0.984  0.171-  96 2.09 112 2.14  84 2.18  72 2.19 108 2.20  91 2.23  88 2.28  30 3.38
                            11 3.47   7 3.48  24 3.49  14 3.52  27 3.52  31 3.69
  20  0.856  0.483  0.173-  97 2.10 113 2.11  85 2.18 109 2.20  92 2.23  73 2.24  89 2.32  31 3.33
                            28 3.49   8 3.51  12 3.53  21 3.53  15 3.54  32 3.64
  21  0.089  0.495  0.183- 114 2.09  98 2.11  97 2.17  90 2.18  74 2.24  89 2.27 102 2.29  25 3.37
                            13 3.49  32 3.51  20 3.53  12 3.53  26 3.63  33 3.64
  22  0.339  0.995  0.182- 115 2.10  99 2.11  94 2.17  91 2.19  75 2.23 103 2.25  86 2.27  26 3.38
                            14 3.49  29 3.51   9 3.52  17 3.52  34 3.61  27 3.62
  23  0.589  0.493  0.182- 100 2.08 116 2.12  95 2.17  92 2.18  76 2.23  87 2.29 104 2.31  27 3.36
                            15 3.49  35 3.50  18 3.52  10 3.52  30 3.56  28 3.69
  24  0.839  0.995  0.183- 117 2.10 101 2.10  96 2.18  93 2.18  77 2.25  88 2.27 105 2.28  28 3.36
                            19 3.49  16 3.50  11 3.53  31 3.53  36 3.61  25 3.64
  25  0.005  0.230  0.191-  78 2.10  97 2.10 121 2.17  98 2.19 105 2.21 106 2.29  93 2.30  21 3.37
                            37 3.45  16 3.50  17 3.54  29 3.55  24 3.64  36 3.65
  26  0.253  0.730  0.191-  94 2.10  79 2.10 102 2.18  99 2.20 118 2.20 107 2.29  90 2.29  22 3.38
                            38 3.46  13 3.50  18 3.54  30 3.54  21 3.63  33 3.65
  27  0.504  0.229  0.191-  80 2.09  95 2.11 119 2.18 100 2.19 103 2.19  91 2.29 108 2.29  23 3.36
                            39 3.47  14 3.48  19 3.52  31 3.59  22 3.62  34 3.66
  28  0.758  0.730  0.191-  81 2.08  96 2.11 101 2.16 120 2.22 104 2.24 109 2.24  92 2.30  24 3.36
                            35 3.49  32 3.49  20 3.49  15 3.50  40 3.58  23 3.69
  29  0.240  0.242  0.201-  98 2.10  83 2.10 122 2.19 103 2.21 111 2.22  86 2.23 106 2.28  18 3.37
                            37 3.41  42 3.50  22 3.51  25 3.55  34 3.63  17 3.67
  30  0.488  0.743  0.200-  99 2.08  84 2.09 112 2.19 123 2.20  87 2.22 104 2.26 107 2.29  19 3.38
                            38 3.44  35 3.49  43 3.50  26 3.54  23 3.56  18 3.65
  31  0.741  0.245  0.204-  85 2.11 100 2.12 113 2.13 105 2.22 124 2.25  88 2.28 108 2.31  20 3.33
                            39 3.45  24 3.53  44 3.54  27 3.59  36 3.64  19 3.69
  32  0.989  0.740  0.203- 101 2.11  82 2.14 110 2.18 102 2.21 125 2.22  89 2.23 109 2.26  17 3.40
                            41 3.46  28 3.49  21 3.51  40 3.52  33 3.63  20 3.64
  33  0.123  0.641  0.314- 142 2.02 126 2.16 138 2.17 114 2.21 125 2.23 118 2.38 102 2.42  45 3.23
                            41 3.47  38 3.54  32 3.63  21 3.64  26 3.65  46 3.71
  34  0.371  0.139  0.313- 143 2.02 127 2.14 139 2.19 115 2.19 122 2.24 119 2.36 103 2.43  46 3.22
                            42 3.49  39 3.53  22 3.61  29 3.63  47 3.65  27 3.66
  35  0.622  0.648  0.304- 140 2.14 123 2.18 104 2.19 116 2.19 128 2.19 120 2.23 144 2.28  49 3.21
                            43 3.42  47 3.44  30 3.49  28 3.49  23 3.50  40 3.59  48 3.70
  36  0.875  0.138  0.314- 145 2.03 129 2.12 141 2.14 117 2.22 124 2.30 105 2.38 121 2.44  48 3.22
                            44 3.40  37 3.54  24 3.61  31 3.64  25 3.65  45 3.77
  37  0.110  0.161  0.312- 130 2.09 121 2.14 106 2.16 129 2.16 122 2.16 134 2.17  29 3.41  25 3.45
                            41 3.45  45 3.51  36 3.54  42 3.58
  38  0.358  0.660  0.313- 131 2.10 126 2.15 118 2.16 107 2.16 135 2.16 123 2.16  30 3.44  42 3.44
                            26 3.46  46 3.53  33 3.54  43 3.59
  39  0.606  0.158  0.314- 136 2.10 132 2.11 127 2.15 108 2.16 124 2.18 119 2.22  43 3.43  31 3.45
                            47 3.46  27 3.47  34 3.53  44 3.68
  40  0.859  0.664  0.321- 133 2.13 146 2.17 125 2.19 137 2.19 120 2.20 128 2.31 109 2.32  48 3.45
                            49 3.48  32 3.52  44 3.55  41 3.58  28 3.58  35 3.59
  41  0.028  0.889  0.324- 110 2.05 137 2.15 138 2.15 129 2.16 130 2.20 125 2.31  37 3.45  32 3.46
                            33 3.47  46 3.50  40 3.58
  42  0.276  0.389  0.325- 111 2.06 139 2.13 126 2.14 131 2.25 134 2.25 122 2.29  38 3.44  47 3.49
                            34 3.49  29 3.50  37 3.58
  43  0.524  0.887  0.325- 112 2.06 127 2.14 140 2.14 132 2.18 135 2.27 123 2.30  35 3.42  39 3.43
                            30 3.50  48 3.56  38 3.59
  44  0.784  0.381  0.332- 141 2.10 147 2.11 133 2.15 113 2.20 124 2.23 128 2.26 136 2.65  49 3.19
                            36 3.40  45 3.43  31 3.54  40 3.55  39 3.68
  45  0.012  0.407  0.336- 142 2.02 114 2.06 133 2.17 141 2.24 134 2.29 121 2.30  33 3.23  44 3.43
                            37 3.51  36 3.77
  46  0.259  0.907  0.336- 143 2.02 115 2.07 130 2.15 138 2.26 118 2.29 135 2.31  34 3.22  41 3.50
                            38 3.53  33 3.71
  47  0.507  0.399  0.334- 116 2.07 136 2.13 131 2.16 119 2.22 139 2.23 144 2.24  35 3.44  39 3.46
                            42 3.49  34 3.65  49 3.87
  48  0.760  0.906  0.337- 145 2.01 117 2.06 132 2.18 137 2.22 120 2.33 140 2.36  36 3.22  40 3.45
                            43 3.56  35 3.70
  49  0.702  0.550  0.415- 147 1.91 144 2.08 149 2.09 146 2.09 148 2.12 128 2.18  44 3.19  35 3.21
                            40 3.48  47 3.87
  50  0.024  0.173  0.000-  16 2.10   1 2.18
  51  0.274  0.673  0.000-  13 2.10   2 2.18
  52  0.524  0.173  0.000-  14 2.10   3 2.18
  53  0.774  0.673  0.000-  15 2.10   4 2.18
  54  0.215  0.432  0.016-  13 2.19   6 2.22   1 2.30
  55  0.465  0.932  0.016-  14 2.19   7 2.22   2 2.30
  56  0.715  0.432  0.016-  15 2.19   8 2.22   3 2.30
  57  0.965  0.932  0.016-  16 2.19   5 2.22   4 2.30
  58  0.207  0.891  0.025-   5 2.19   2 2.26   9 2.30
  59  0.457  0.391  0.025-   6 2.19   3 2.26  10 2.30
  60  0.707  0.891  0.025-   7 2.19   4 2.26  11 2.30
  61  0.957  0.391  0.025-   8 2.19   1 2.26  12 2.30
  62  0.197  0.226  0.044-   9 2.10   1 2.10   6 2.18
  63  0.447  0.726  0.044-  10 2.10   2 2.10   7 2.18
  64  0.697  0.226  0.044-  11 2.10   3 2.10   8 2.18
  65  0.947  0.726  0.044-  12 2.10   4 2.10   5 2.18
  66  0.111  0.675  0.062-   5 2.10  13 2.10  12 2.18
  67  0.361  0.175  0.062-   6 2.10  14 2.10   9 2.18
  68  0.611  0.675  0.062-   7 2.10  15 2.10  10 2.18
  69  0.861  0.175  0.062-   8 2.10  16 2.10  11 2.18
  70  0.101  0.010  0.081-  17 2.19   9 2.19  16 2.26   5 2.30
  71  0.351  0.510  0.081-  18 2.19  10 2.19  13 2.26   6 2.30
  72  0.601  0.010  0.081-  19 2.19  11 2.19  14 2.26   7 2.30
  73  0.851  0.510  0.081-  12 2.19  20 2.24  15 2.26   8 2.30
  74  0.093  0.470  0.090-   1 2.19  12 2.22  21 2.24  13 2.30
  75  0.343  0.970  0.090-   2 2.19   9 2.22  22 2.23  14 2.30
  76  0.593  0.470  0.090-   3 2.19  10 2.22  23 2.23  15 2.30
  77  0.843  0.970  0.090-   4 2.19  11 2.22  24 2.25  16 2.30
  78  0.034  0.229  0.106-   1 2.10  25 2.10  16 2.18
  79  0.284  0.729  0.106-   2 2.10  26 2.10  13 2.18
  80  0.534  0.229  0.106-  27 2.09   3 2.10  14 2.18
  81  0.784  0.729  0.106-  28 2.08   4 2.10  15 2.18
  82  0.045  0.833  0.134-   5 2.07  32 2.14  17 2.16
  83  0.297  0.334  0.133-   6 2.06  29 2.10  18 2.16
  84  0.546  0.834  0.133-   7 2.06  30 2.09  19 2.18
  85  0.796  0.333  0.134-   8 2.08  31 2.11  20 2.18
  86  0.231  0.093  0.146-   9 2.16  29 2.23  22 2.27  17 2.31
  87  0.482  0.593  0.147-  10 2.17  30 2.22  23 2.29  18 2.30
  88  0.732  0.094  0.147-  11 2.18  24 2.27  19 2.28  31 2.28
  89  0.982  0.593  0.147-  12 2.18  32 2.23  21 2.27  20 2.32
  90  0.226  0.552  0.160-  21 2.18  18 2.23  13 2.26  26 2.29
  91  0.476  0.051  0.161-  22 2.19  19 2.23  14 2.27  27 2.29
  92  0.725  0.552  0.161-  23 2.18  20 2.23  15 2.27  28 2.30
  93  0.975  0.052  0.161-  24 2.18  17 2.23  16 2.27  25 2.30
  94  0.215  0.890  0.181-  17 2.09  26 2.10  22 2.17
  95  0.465  0.390  0.181-  18 2.09  27 2.11  23 2.17
  96  0.715  0.889  0.181-  19 2.09  28 2.11  24 2.18
  97  0.965  0.390  0.182-  20 2.10  25 2.10  21 2.17
  98  0.130  0.335  0.192-  29 2.10  21 2.11  25 2.19
  99  0.379  0.835  0.193-  30 2.08  22 2.11  26 2.20
 100  0.629  0.335  0.194-  23 2.08  31 2.12  27 2.19
 101  0.880  0.836  0.194-  24 2.10  32 2.11  28 2.16
 102  0.118  0.671  0.215-  26 2.18  32 2.21  21 2.29  33 2.42
 103  0.367  0.169  0.213-  27 2.19  29 2.21  22 2.25  34 2.43
 104  0.618  0.671  0.214-  35 2.19  28 2.24  30 2.26  23 2.31
 105  0.868  0.170  0.216-  25 2.21  31 2.22  24 2.28  36 2.38
 106  0.116  0.130  0.224-  37 2.16  17 2.20  29 2.28  25 2.29
 107  0.364  0.631  0.224-  38 2.16  18 2.19  26 2.29  30 2.29
 108  0.615  0.131  0.225-  39 2.16  19 2.20  27 2.29  31 2.31
 109  0.865  0.632  0.225-  20 2.20  28 2.24  32 2.26  40 2.32
 110  0.047  0.893  0.240-  41 2.05  17 2.13  32 2.18
 111  0.297  0.396  0.241-  42 2.06  18 2.13  29 2.22
 112  0.547  0.893  0.240-  43 2.06  19 2.14  30 2.19
 113  0.797  0.393  0.241-  20 2.11  31 2.13  44 2.20
 114  0.070  0.492  0.269-  45 2.06  21 2.09  33 2.21
 115  0.315  0.992  0.268-  46 2.07  22 2.10  34 2.19
 116  0.562  0.494  0.269-  47 2.07  23 2.12  35 2.19
 117  0.810  0.993  0.269-  48 2.06  24 2.10  36 2.22
 118  0.252  0.750  0.283-  38 2.16  26 2.20  46 2.29  33 2.38
 119  0.497  0.250  0.281-  27 2.18  39 2.22  47 2.22  34 2.36
 120  0.750  0.747  0.283-  40 2.20  28 2.22  35 2.23  48 2.33
 121  0.006  0.251  0.281-  37 2.14  25 2.17  45 2.30  36 2.44
 122  0.246  0.214  0.291-  37 2.16  29 2.19  34 2.24  42 2.29
 123  0.494  0.712  0.290-  38 2.16  35 2.18  30 2.20  43 2.30
 124  0.744  0.215  0.296-  39 2.18  44 2.23  31 2.25  36 2.30
 125  0.995  0.711  0.294-  40 2.19  32 2.22  33 2.23  41 2.31
 126  0.240  0.554  0.329-  42 2.14  38 2.15  33 2.16
 127  0.486  0.052  0.327-  34 2.14  43 2.14  39 2.15
 128  0.730  0.547  0.326-  49 2.18  35 2.19  44 2.26  40 2.31
 129  0.990  0.056  0.328-  36 2.12  41 2.16  37 2.16
 130  0.148  0.004  0.330-  37 2.09  46 2.15  41 2.20
 131  0.399  0.505  0.334-  38 2.10  47 2.16  42 2.25
 132  0.643  0.000  0.334-  39 2.11  43 2.18  48 2.18
 133  0.897  0.501  0.329-  40 2.13  44 2.15  45 2.17
 134  0.138  0.321  0.352-  37 2.17  42 2.25  45 2.29
 135  0.386  0.819  0.351-  38 2.16  43 2.27  46 2.31
 136  0.617  0.310  0.355-  39 2.10  47 2.13  44 2.65
 137  0.891  0.837  0.342-  41 2.15  40 2.19  48 2.22
 138  0.133  0.799  0.356-  41 2.15  33 2.17  46 2.26
 139  0.381  0.299  0.355-  42 2.13  34 2.19  47 2.23
 140  0.628  0.793  0.354-  35 2.14  43 2.14  48 2.36
 141  0.892  0.293  0.355-  44 2.10  36 2.14  45 2.24
 142  0.067  0.543  0.375-  45 2.02  33 2.02
 143  0.316  0.043  0.375-  34 2.02  46 2.02
 144  0.577  0.542  0.379-  49 2.08  47 2.24  35 2.28
 145  0.816  0.042  0.375-  48 2.01  36 2.03
 146  0.803  0.678  0.403- 149 1.27  49 2.09  40 2.17
 147  0.759  0.416  0.417-  49 1.91  44 2.11
 148  0.727  0.661  0.483-  49 2.12
 149  0.772  0.687  0.452- 146 1.27  49 2.09
 
  Warning from LATTYP: Monoclinic adjustement (A1->A3, A2->A1, A3->A2)!
  Warning from LATTYP: Got some problem with cell dimensions!
  Tried to take original basis but could not verify dimensions!
  LATTYP: Found a simple monoclinic cell.
 ALAT       =    18.5584556648
 B/A-ratio  =     1.2917238965
 C/A-ratio  =     1.7011970181
 COS(beta)  =    -0.9496615564
  
  Lattice vectors:
  
 A1 = ( -14.0305058395, -12.1474763861,   0.0000000000)
 A2 = (   0.0000000000,   0.0000000000, -23.9724006653)
 A3 = (  29.1411063110,  12.1474763861,   0.0000000000)


Analysis of symmetry for initial positions (statically):
=====================================================================
 Subroutine PRICEL returns:
 Original cell was already a primitive cell.
 

 Routine SETGRP: Setting up the symmetry group for a 
 simple monoclinic supercell.


 Subroutine GETGRP returns: Found  1 space group operations
 (whereof  1 operations were pure point group operations)
 out of a pool of  4 trial point group operations.


The static configuration has the point symmetry C_1 .


Analysis of symmetry for dynamics (positions and initial velocities):
=====================================================================
 Subroutine PRICEL returns:
 Original cell was already a primitive cell.
 

 Routine SETGRP: Setting up the symmetry group for a 
 simple monoclinic supercell.


 Subroutine GETGRP returns: Found  1 space group operations
 (whereof  1 operations were pure point group operations)
 out of a pool of  4 trial point group operations.


The dynamic configuration has the point symmetry C_1 .


Analysis of constrained symmetry for selective dynamics:
=====================================================================
 Subroutine PRICEL returns:
 Original cell was already a primitive cell.
 

 Routine SETGRP: Setting up the symmetry group for a 
 simple monoclinic supercell.


 Subroutine GETGRP returns: Found  1 space group operations
 (whereof  1 operations were pure point group operations)
 out of a pool of  4 trial point group operations.


The constrained configuration has the point symmetry C_1 .


Analysis of structural, dynamic, and magnetic symmetry:
=====================================================================
 Subroutine PRICEL returns:
 Original cell was already a primitive cell.
 

 Routine SETGRP: Setting up the symmetry group for a 
 simple monoclinic supercell.


 Subroutine GETGRP returns: Found  1 space group operations
 (whereof  1 operations were pure point group operations)
 out of a pool of  4 trial point group operations.


The magnetic configuration has the point symmetry C_1 .


 Subroutine INISYM returns: Found  1 space group operations
 (whereof  1 operations are pure point group operations),
 and found     1 'primitive' translations

 
 
 KPOINTS: Monkhorst Pack                          

Automatic generation of k-mesh.
Space group operators:
 irot       det(A)        alpha          n_x          n_y          n_z        tau_x        tau_y        tau_z
    1     1.000000     0.000000     1.000000     0.000000     0.000000     0.000000     0.000000     0.000000
 
 Subroutine IBZKPT returns following result:
 ===========================================
 
 Found      2 irreducible k-points:
 
 Following reciprocal coordinates:
            Coordinates               Weight
  0.250000  0.250000  0.000000      2.000000
 -0.250000  0.250000  0.000000      2.000000
 
 Following cartesian coordinates:
            Coordinates               Weight
  0.016545  0.022051  0.000000      2.000000
 -0.016545  0.019109  0.000000      2.000000
 


--------------------------------------------------------------------------------------------------------




 Dimension of arrays:
   k-points           NKPTS =      2   k-points in BZ     NKDIM =      2   number of bands    NBANDS=    640
   number of dos      NEDOS =    301   number of ions     NIONS =    149
   non local maximal  LDIM  =      6   non local SUM 2l+1 LMDIM =     18
   total plane-waves  NPLWV = 823200
   max r-space proj   IRMAX =   2561   max aug-charges    IRDMAX=   7978
   dimension x,y,z NGX =    84 NGY =   70 NGZ =  140
   dimension x,y,z NGXF=   168 NGYF=  140 NGZF=  280
   support grid    NGXF=   168 NGYF=  140 NGZF=  280
   ions per type =              49  98   2
   NGX,Y,Z   is equivalent  to a cutoff of   9.24,  9.54,  9.71 a.u.
   NGXF,Y,Z  is equivalent  to a cutoff of  18.48, 19.08, 19.42 a.u.

 SYSTEM =  mZrO2_n111_dimer                        
 POSCAR =  Zr   O    H                             

 Startparameter for this run:
   NWRITE =      2    write-flag & timer
   PREC   = normal    normal or accurate (medium, high low for compatibility)
   ISTART =      1    job   : 0-new  1-cont  2-samecut
   ICHARG =      1    charge: 1-file 2-atom 10-const
   ISPIN  =      2    spin polarized calculation?
   LNONCOLLINEAR =      F non collinear calculations
   LSORBIT =      F    spin-orbit coupling
   INIWAV =      1    electr: 0-lowe 1-rand  2-diag
   LASPH  =      F    aspherical Exc in radial PAW
   METAGGA=      F    non-selfconsistent MetaGGA calc.

 Electronic Relaxation 1
   ENCUT  =  500.0 eV  36.75 Ry    6.06 a.u.  27.55 22.24 43.71*2*pi/ulx,y,z
   ENINI  =  500.0     initial cutoff
   ENAUG  =  605.4 eV  augmentation charge cutoff
   NELM   =    300;   NELMIN=  2; NELMDL=  0     # of ELM steps 
   EDIFF  = 0.1E-05   stopping-criterion for ELM
   LREAL  =      T    real-space projection
   NLSPLINE    = F    spline interpolate recip. space projectors
   LCOMPAT=      F    compatible to vasp.4.4
   GGA_COMPAT  = T    GGA compatible to vasp.4.4-vasp.4.6
   LMAXPAW     = -100 max onsite density
   LMAXMIX     =    2 max onsite mixed and CHGCAR
   VOSKOWN=      0    Vosko Wilk Nusair interpolation
   ROPT   =   -0.00050  -0.00050  -0.00050
 Ionic relaxation
   EDIFFG = -.5E-01   stopping-criterion for IOM
   NSW    =      0    number of steps for IOM
   NBLOCK =      1;   KBLOCK =      1    inner block; outer block 
   IBRION =     -1    ionic relax: 0-MD 1-quasi-New 2-CG
   NFREE  =      0    steps in history (QN), initial steepest desc. (CG)
   ISIF   =      2    stress and relaxation
   IWAVPR =     10    prediction:  0-non 1-charg 2-wave 3-comb
   ISYM   =      2    0-nonsym 1-usesym 2-fastsym
   LCORR  =      T    Harris-Foulkes like correction to forces

   POTIM  = 0.0000    time-step for ionic-motion
   TEIN   =    0.0    initial temperature
   TEBEG  =    0.0;   TEEND  =   0.0 temperature during run
   SMASS  =  -3.00    Nose mass-parameter (am)
   estimated Nose-frequenzy (Omega)   =  0.10E-29 period in steps =  0.00 mass=  -0.522E-26a.u.
   SCALEE = 1.0000    scale energy and forces
   NPACO  =    256;   APACO  = 16.0  distance and # of slots for P.C.
   PSTRESS=    0.0 pullay stress

  Mass of Ions in am
   POMASS =  91.22 16.00  1.00
  Ionic Valenz
   ZVAL   =  12.00  6.00  1.00
  Atomic Wigner-Seitz radii
   RWIGS  =  -1.00 -1.00 -1.00
  virtual crystal weights 
   VCA    =   1.00  1.00  1.00
   NELECT =    1178.0000    total number of electrons
   NUPDOWN=      -1.0000    fix difference up-down

 DOS related values:
   EMIN   =  10.00;   EMAX   =-10.00  energy-range for DOS
   EFERMI =   0.00
   ISMEAR =     0;   SIGMA  =   0.05  broadening in eV -4-tet -1-fermi 0-gaus

 Electronic relaxation 2 (details)
   IALGO  =     38    algorithm
   LDIAG  =      T    sub-space diagonalisation (order eigenvalues)
   LSUBROT=      F    optimize rotation matrix (better conditioning)
   TURBO    =      0    0=normal 1=particle mesh
   IRESTART =      0    0=no restart 2=restart with 2 vectors
   NREBOOT  =      0    no. of reboots
   NMIN     =      0    reboot dimension
   EREF     =   0.00    reference energy to select bands
   IMIX   =      4    mixing-type and parameters
     AMIX     =   0.40;   BMIX     =  1.00
     AMIX_MAG =   1.60;   BMIX_MAG =  1.00
     AMIN     =   0.10
     WC   =   100.;   INIMIX=   1;  MIXPRE=   1;  MAXMIX= -45

 Intra band minimization:
   WEIMIN = 0.0000     energy-eigenvalue tresh-hold
   EBREAK =  0.39E-09  absolut break condition
   DEPER  =   0.30     relativ break condition  

   TIME   =   0.40     timestep for ELM

  volume/ion in A,a.u.               =      29.53       199.29
  Fermi-wavevector in a.u.,A,eV,Ry     =   1.055108  1.993865 15.146719  1.113252
  Thomas-Fermi vector in A             =   2.190293
 
 Write flags
   LWAVE        =      T    write WAVECAR
   LDOWNSAMPLE  =      F    k-point downsampling of WAVECAR
   LCHARG       =      T    write CHGCAR
   LVTOT        =      F    write LOCPOT, total local potential
   LVHAR        =      F    write LOCPOT, Hartree potential only
   LELF         =      F    write electronic localiz. function (ELF)
   LORBIT       =      0    0 simple, 1 ext, 2 COOP (PROOUT), +10 PAW based schemes


 Dipole corrections
   LMONO  =      F    monopole corrections only (constant potential shift)
   LDIPOL =      F    correct potential (dipole corrections)
   IDIPOL =      3    1-x, 2-y, 3-z, 4-all directions 
   EPSILON=  1.0000000 bulk dielectric constant

 LDA+U is selected, type is set to LDAUTYPE =  2
   angular momentum for each species LDAUL =     2   -1   -1
   U (eV)           for each species LDAUU =   4.0  0.0  0.0
   J (eV)           for each species LDAUJ =   0.0  0.0  0.0
 Exchange correlation treatment:
   GGA     =    --    GGA type
   LEXCH   =     8    internal setting for exchange type
   VOSKOWN=      0    Vosko Wilk Nusair interpolation
   LHFCALC =     F    Hartree Fock is set to
   LHFONE  =     F    Hartree Fock one center treatment
   AEXX    =    0.0000 exact exchange contribution

 Linear response parameters
   LEPSILON=     F    determine dielectric tensor
   LRPA    =     F    only Hartree local field effects (RPA)
   LNABLA  =     F    use nabla operator in PAW spheres
   LVEL    =     F    velocity operator in full k-point grid
   LINTERFAST=   F  fast interpolation
   KINTER  =     0    interpolate to denser k-point grid
   CSHIFT  =0.1000    complex shift for real part using Kramers Kronig
   OMEGAMAX=  -1.0    maximum frequency
   DEG_THRESHOLD= 0.2000000E-02 threshold for treating states as degnerate
   RTIME   =   -0.100 relaxation time in fs
  (WPLASMAI=    0.000 imaginary part of plasma frequency in eV, 0.658/RTIME)
   DFIELD  = 0.0000000 0.0000000 0.0000000 field for delta impulse in time
 
 Orbital magnetization related:
   ORBITALMAG=     F  switch on orbital magnetization
   LCHIMAG   =     F  perturbation theory with respect to B field
   DQ        =  0.001000  dq finite difference perturbation B field
   LLRAUG    =     F  two centre corrections for induced B field



--------------------------------------------------------------------------------------------------------


 Static calculation
 charge density and potential will be updated during run
 spin polarized calculation
 Variant of blocked Davidson
 Davidson routine will perform the subspace rotation
 perform sub-space diagonalisation
    after iterative eigenvector-optimisation
 modified Broyden-mixing scheme, WC =      100.0
 initial mixing is a Kerker type mixing with AMIX =  0.4000 and BMIX =      1.0000
 Hartree-type preconditioning will be used
 using additional bands           51
 real space projection scheme for non local part
 use partial core corrections
 calculate Harris-corrections to forces 
   (improved forces if not selfconsistent)
 use gradient corrections 
 use of overlap-Matrix (Vanderbilt PP)
 Gauss-broadening in eV      SIGMA  =   0.05


--------------------------------------------------------------------------------------------------------


  energy-cutoff  :      500.00
  volume of cell :     4400.27
      direct lattice vectors                 reciprocal lattice vectors
    15.110600471  0.000000000  0.000000000     0.066178707  0.005884289  0.000000000
    -1.080094632 12.147476386  0.000000000     0.000000000  0.082321625  0.000000000
     0.000000000  0.000000000 23.972400665     0.000000000  0.000000000  0.041714637

  length of vectors
    15.110600471 12.195400238 23.972400665     0.066439793  0.082321625  0.041714637


 
 old parameters found on file WAVECAR:
  energy-cutoff  :      500.00
  volume of cell :     4400.27
      direct lattice vectors                 reciprocal lattice vectors
    15.110600471  0.000000000  0.000000000     0.066178707  0.005884289  0.000000000
    -1.080094632 12.147476386  0.000000000     0.000000000  0.082321625  0.000000000
     0.000000000  0.000000000 23.972400665     0.000000000  0.000000000  0.041714637

  length of vectors

 
 k-points in units of 2pi/SCALE and weight: Monkhorst Pack                          
   0.01654468  0.02205148  0.00000000       0.500
  -0.01654468  0.01910933  0.00000000       0.500
 
 k-points in reciprocal lattice and weights: Monkhorst Pack                          
   0.25000000  0.25000000  0.00000000       0.500
  -0.25000000  0.25000000  0.00000000       0.500
 
 position of ions in fractional coordinates (direct lattice) 
   0.08848000  0.32082999  0.03824000
   0.33847998  0.82083000  0.03824000
   0.58847999  0.32082999  0.03824000
   0.83848001  0.82083000  0.03824000
   0.07020001  0.83354995  0.04873000
   0.32019998  0.33355000  0.04873000
   0.57020004  0.83354995  0.04873000
   0.82020001  0.33355000  0.04873000
   0.23783000  0.06778000  0.05703000
   0.48783004  0.56778001  0.05703000
   0.73783001  0.06778000  0.05703000
   0.98782997  0.56778001  0.05703000
   0.21954999  0.58051001  0.06752000
   0.46955000  0.08051000  0.06752000
   0.71954999  0.58051001  0.06752000
   0.96955000  0.08051000  0.06752000
   0.10585060  0.98262519  0.17084935
   0.35632318  0.48379187  0.17108918
   0.60783359  0.98418101  0.17128752
   0.85586435  0.48316393  0.17320882
   0.08940251  0.49469486  0.18258441
   0.33898335  0.99511973  0.18214838
   0.58915176  0.49256730  0.18208674
   0.83872000  0.99513335  0.18280009
   0.00474421  0.23022002  0.19144612
   0.25315826  0.72996491  0.19129974
   0.50400898  0.22877515  0.19081833
   0.75807422  0.72968884  0.19109727
   0.23967256  0.24192970  0.20062025
   0.48768948  0.74319975  0.19952561
   0.74124394  0.24490211  0.20356492
   0.98877027  0.73997170  0.20265320
   0.12347628  0.64117190  0.31429823
   0.37138280  0.13942479  0.31287176
   0.62218500  0.64848185  0.30395452
   0.87458334  0.13761352  0.31376863
   0.11005156  0.16103019  0.31229823
   0.35838838  0.65961052  0.31260758
   0.60613611  0.15759621  0.31365962
   0.85902036  0.66388430  0.32068342
   0.02782438  0.88908513  0.32424759
   0.27560227  0.38850029  0.32532042
   0.52434457  0.88743080  0.32476798
   0.78397888  0.38085533  0.33234892
   0.01202411  0.40706070  0.33587180
   0.25922961  0.90655626  0.33618426
   0.50679106  0.39922858  0.33401926
   0.76006335  0.90647135  0.33709145
   0.70224875  0.55033577  0.41529925
   0.02440000  0.17254999  0.00000000
   0.27439999  0.67255002  0.00000000
   0.52439999  0.17254999  0.00000000
   0.77439999  0.67255002  0.00000000
   0.21455000  0.43156997  0.01581000
   0.46455001  0.93156996  0.01581000
   0.71455008  0.43156997  0.01581000
   0.96455004  0.93156996  0.01581000
   0.20673000  0.89092997  0.02490000
   0.45673000  0.39092998  0.02490000
   0.70672997  0.89092997  0.02490000
   0.95673004  0.39092998  0.02490000
   0.19748000  0.22610000  0.04418000
   0.44748002  0.72610003  0.04418000
   0.69748003  0.22610000  0.04418000
   0.94747999  0.72610003  0.04418000
   0.11054000  0.67523994  0.06158000
   0.36054002  0.17523999  0.06158000
   0.61053998  0.67523994  0.06158000
   0.86053999  0.17523999  0.06158000
   0.10129000  0.01041000  0.08086000
   0.35129000  0.51041000  0.08086000
   0.60128998  0.01041000  0.08086000
   0.85128994  0.51041000  0.08086000
   0.09348000  0.46976000  0.08995000
   0.34348000  0.96975995  0.08995000
   0.59348001  0.46976000  0.08995000
   0.84347996  0.96975995  0.08995000
   0.03362000  0.22878000  0.10576000
   0.28361999  0.72877998  0.10576000
   0.53361997  0.22878000  0.10576000
   0.78362002  0.72877998  0.10576000
   0.04547395  0.83263694  0.13371073
   0.29651519  0.33389632  0.13349211
   0.54614711  0.83403374  0.13333748
   0.79599044  0.33284282  0.13409184
   0.23148539  0.09339255  0.14613184
   0.48165098  0.59345027  0.14664979
   0.73176775  0.09370626  0.14693618
   0.98176612  0.59331492  0.14696223
   0.22564640  0.55226126  0.16049307
   0.47628233  0.05094899  0.16066238
   0.72525019  0.55201960  0.16086223
   0.97520909  0.05222759  0.16079558
   0.21505131  0.89025825  0.18104594
   0.46465605  0.38957021  0.18084733
   0.71511742  0.88877363  0.18085997
   0.96537943  0.39036149  0.18204438
   0.13009220  0.33499664  0.19220730
   0.37891026  0.83517998  0.19303123
   0.62853028  0.33512482  0.19437110
   0.87990122  0.83620311  0.19367025
   0.11781176  0.67114766  0.21479976
   0.36723110  0.16949023  0.21274610
   0.61826349  0.67104568  0.21352321
   0.86797707  0.16989473  0.21621285
   0.11570980  0.13024031  0.22376184
   0.36413182  0.63111941  0.22388083
   0.61513411  0.13138235  0.22496407
   0.86453684  0.63188530  0.22535994
   0.04742805  0.89316316  0.23973733
   0.29721453  0.39584796  0.24058915
   0.54731787  0.89336246  0.24002472
   0.79720927  0.39320061  0.24118244
   0.07013323  0.49207536  0.26888798
   0.31529193  0.99210829  0.26834897
   0.56170320  0.49384629  0.26886592
   0.81001751  0.99319595  0.26850984
   0.25181683  0.75020000  0.28255086
   0.49726220  0.24973150  0.28102348
   0.74963522  0.74673229  0.28325112
   0.00565266  0.25133760  0.28125699
   0.24609490  0.21405933  0.29083116
   0.49416450  0.71247041  0.28991012
   0.74394964  0.21504785  0.29610039
   0.99545893  0.71072878  0.29382097
   0.23983613  0.55418375  0.32922916
   0.48610658  0.05217097  0.32660055
   0.72993670  0.54734799  0.32611884
   0.99027886  0.05563158  0.32820040
   0.14801246  0.00398493  0.33047846
   0.39880894  0.50461623  0.33415463
   0.64339333  0.00006128  0.33426154
   0.89723024  0.50085861  0.32904202
   0.13831571  0.32082323  0.35156195
   0.38621069  0.81904064  0.35123469
   0.61708516  0.30976726  0.35485157
   0.89126303  0.83739164  0.34210799
   0.13326187  0.79943179  0.35620817
   0.38082742  0.29883540  0.35535773
   0.62779159  0.79340098  0.35439495
   0.89161012  0.29303428  0.35529137
   0.06744600  0.54303434  0.37497381
   0.31643076  0.04274510  0.37455348
   0.57720422  0.54241516  0.37885325
   0.81612888  0.04198118  0.37498768
   0.80289987  0.67750869  0.40323512
   0.75861066  0.41608129  0.41662878
   0.72742842  0.66115444  0.48291748
   0.77215272  0.68683341  0.45195599
 
 position of ions in cartesian coordinates  (Angst):
   0.99045921  3.89727473  0.91670460
   4.22806168  9.97101307  0.91670460
   8.54575920  3.89727473  0.91670460
  11.78336239  9.97101307  0.91670460
   0.16045142 10.12552833  1.16817511
   4.47814847  4.05179071  1.16817511
   7.71575212 10.12552833  1.16817511
  12.03344917  4.05179071  1.16817511
   3.52054525  0.82335597  1.36714601
   6.75814868  6.89709425  1.36714601
  11.07584571  0.82335597  1.36714601
  14.31344795  6.89709425  1.36714601
   2.69052649  7.05173159  1.61861647
   7.00822400  0.97799331  1.61861647
  10.24582672  7.05173159  1.61861647
  14.56352424  0.97799331  1.61861647
   0.53813795 11.93641624  4.09566919
   4.86171615  5.87685030  4.10141838
   8.12172193 11.95531555  4.10617303
  12.41076144  5.86922246  4.15223129
   0.81660838  6.00929415  4.37698654
   4.04741844 12.08819345  4.36653396
   8.37041763  5.98344967  4.36505623
  11.59872464 12.08835882  4.38215703
  -0.17697150  2.79659228  4.58942304
   3.03694221  8.86723148  4.58591390
   7.36877946  2.77904069  4.57437353
  10.66682361  8.86387797  4.58106028
   3.36028928  2.93883527  4.80934895
   6.56655489  9.02800144  4.78310796
  10.93612350  2.97494261  4.87993988
  14.14167309  8.98878875  4.85808378
   1.17327447  7.78862055  7.53448305
   5.46122522  1.69365930  7.50028708
   8.70116712  7.87741801  7.28651947
  13.06684381  1.67165693  7.52178724
   1.48901730  1.95611040  7.48653819
   4.70302178  8.01260323  7.49395427
   8.98886172  1.91439618  7.51917420
  12.26325564  8.06451887  7.68755143
  -0.53985295 10.80014057  7.77299305
   3.74489875  4.71929812  7.79871145
   6.96465210 10.78004463  7.78546816
  11.43503190  4.62643107  7.96720139
  -0.25797257  4.94476024  8.05165338
   2.93794848 11.01237078  8.05914386
   7.22671260  4.84961972  8.00724364
  10.50593885 11.01133929  8.08089132
  10.01698553  6.68519080  9.95571997
   0.18232835  2.09604693  0.00000000
   3.41993094  8.16978550  0.00000000
   7.73762846  2.09604693  0.00000000
  10.97523117  8.16978550  0.00000000
   2.77584291  5.24248600  0.37900365
   6.01344586 11.31622410  0.37900365
  10.33114434  5.24248600  0.37900365
  13.56874656 11.31622410  0.37900365
   2.16152573 10.82255077  0.59691280
   6.47922326  4.74881268  0.59691280
   9.71682548 10.82255077  0.59691280
  14.03452396  4.74881268  0.59691280
   2.73983193  2.74654436  1.05910064
   5.97743511  8.82028293  1.05910064
  10.29513263  2.74654436  1.05910064
  13.53273487  8.82028293  1.05910064
   0.94100273  8.20246124  1.47622036
   5.25870037  2.12872362  1.47622036
   8.49630260  8.20246124  1.47622036
  12.81400013  2.12872362  1.47622036
   1.51930892  0.12645522  1.93840825
   4.75691175  6.20019341  1.93840825
   9.07460880  0.12645522  1.93840825
  12.31221104  6.20019341  1.93840825
   0.90515363  5.70639848  2.15631746
   4.14275646 11.78013610  2.15631746
   8.46045399  5.70639848  2.15631746
  11.69805622 11.78013610  2.15631746
   0.26091433  2.77909971  2.53532100
   3.49851704  8.85283756  2.53532100
   7.81621408  2.77909971  2.53532100
  11.05381775  8.85283756  2.53532100
  -0.21218805 10.11443759  3.20536713
   4.11988295  4.05599772  3.20012632
   7.35177538 10.13140511  3.19641952
  11.66839173  4.04320030  3.21450330
   3.39701044  1.13448376  3.50313104
   6.63705300  7.20892311  3.51554742
  10.95623850  1.13829463  3.52241309
  14.19423930  7.20727897  3.52303740
   2.81315822  6.70858057  3.84740410
   7.14188230  0.61890169  3.85146306
  10.36273246  6.70564502  3.85625378
  14.67958418  0.63443342  3.85465598
   2.28799127 10.81439105  4.34010589
   6.60045928  4.73229488  4.33534468
   9.84589397 10.79635671  4.33564775
  14.16583551  4.74190694  4.36404088
   1.60394323  4.06936375  4.60767033
   4.82348820 10.14532910  4.62742198
   9.13550336  4.07092086  4.65954184
  12.39265727 10.15775747  4.64274076
   1.05530349  8.15275035  5.14926596
   5.36601692  2.05887852  5.10003474
   8.61753977  8.15151156  5.11866390
  12.93215239  2.06379227  5.18314107
   1.60777274  1.58209114  5.36410849
   4.82058174  7.66650812  5.36696087
   9.15314034  1.59596398  5.39292893
  12.38117486  7.67581180  5.40241889
  -0.24803437 10.84967842  5.74707938
   4.06353675  4.80855369  5.76749943
   7.30538564 10.85209943  5.75396865
  11.62161685  4.77639507  5.78172214
   0.52826730  5.97747378  6.44589042
   3.69267948 12.05161197  6.43296896
   7.95427184  5.99898617  6.44536151
  11.16710538 12.06482434  6.43682536
   2.99481647  9.11303674  6.77342238
   7.24419682  3.03360753  6.73680746
  10.52089673  9.07091282  6.79020931
  -0.18605330  3.05311755  6.74240514
   3.48743735  2.60028066  6.97192102
   6.69758691  8.65471750  6.94984157
  11.00925372  2.61228866  7.09823708
  14.27432783  8.63356105  7.04359390
   3.02549706  6.73193403  7.89241342
   7.28901266  0.63374562  7.82939936
  10.43859425  6.64889676  7.81785155
  14.90362087  0.67578328  7.86775147
   2.23225301  0.04840685  7.92236203
   5.48120931  6.12981371  8.01048861
   9.72199331  0.00074434  8.01305163
  13.01671306  6.08416808  7.88792717
   1.74351403  3.89719262  8.42778381
   4.95123403  9.94927685  8.41993863
   8.98994937  3.76289044  8.50664394
  12.56305739 10.17219517  8.20114979
   1.15020491  9.71107875  8.53916486
   5.43176055  3.63009593  8.51877787
   8.62935971  9.63781967  8.49569778
  13.15625953  3.55962705  8.51718714
   0.43262106  6.59649685  8.98902230
   4.73529007  0.51924506  8.97894615
   8.13604270  6.58897538  9.08202202
  12.28685384  0.50996543  8.98935502
  11.40052562  8.23002076  9.66651379
  11.01365546  5.05433762  9.98759198
  10.27777085  8.03135793 11.57669123
  10.92584621  8.34329262 10.83446996
 


--------------------------------------------------------------------------------------------------------


 k-point  1 :   0.2500 0.2500 0.0000  plane waves:  111683
 k-point  2 :  -0.2500 0.2500 0.0000  plane waves:  111725

 maximum and minimum number of plane-waves per node :      7001     6957

 maximum number of plane-waves:    111725
 maximum index in each direction: 
   IXMAX=   27   IYMAX=   21   IZMAX=   43
   IXMIN=  -27   IYMIN=  -22   IZMIN=  -43


 real space projection operators:
  total allocation   :      21604.27 KBytes
  max/ min on nodes  :       1581.95       1241.99


 parallel 3D FFT for wavefunctions:
    minimum data exchange during FFTs selected (reduces bandwidth)
 parallel 3D FFT for charge:
    minimum data exchange during FFTs selected (reduces bandwidth)


 total amount of memory used by VASP MPI-rank0    90867. kBytes
=======================================================================

   base      :      30000. kBytes
   nonlr-proj:       8308. kBytes
   fftplans  :       4220. kBytes
   grid      :      11656. kBytes
   one-center:        311. kBytes
   wavefun   :      36372. kBytes
 
     INWAV:  cpu time   37.4289: real time   37.4140
 Broyden mixing: mesh for mixing (old mesh)
   NGX = 55   NGY = 45   NGZ = 87
  (NGX  =168   NGY  =140   NGZ  =280)
  gives a total of 215325 points

 initial charge density was supplied:
 number of electron    1178.0000059 magnetization       0.0000000
 keeping initial charge density in first step


--------------------------------------------------------------------------------------------------------


 Maximum index for non-local projection operator          419
 Maximum index for augmentation-charges          474 (set IRDMAX)


--------------------------------------------------------------------------------------------------------


 First call to EWALD:  gamma=   0.108
 Maximum number of real-space cells 3x 4x 2
 Maximum number of reciprocal cells 3x 2x 4

    FEWALD:  cpu time    0.0244: real time    0.0243


--------------------------------------- Iteration      1(   1)  ---------------------------------------


    POTLOK:  cpu time    0.4972: real time    0.5233
    SETDIJ:  cpu time    0.0746: real time    0.0750
     EDDAV:  cpu time   26.2890: real time   26.2810
       DOS:  cpu time    0.0033: real time    0.0034
    CHARGE:  cpu time    1.0091: real time    1.0088
    MIXING:  cpu time    0.0628: real time    0.0673
    --------------------------------------------
      LOOP:  cpu time   27.9364: real time   27.9590

 eigenvalue-minimisations  :  6368
 total energy-change (2. order) :-0.1278598E+04  (-0.1258285E+00)
 number of electron    1178.0000059 magnetization       0.0000000
 augmentation part       73.1793319 magnetization       0.0000000

 Broyden mixing:
  rms(total) = 0.94951E-01    rms(broyden)= 0.94872E-01
  rms(prec ) = 0.96112E-01
  weight for this iteration     100.00

 Free energy of the ion-electron system (eV)
  ---------------------------------------------------
  alpha Z        PSCENC =      2061.33132521
  Ewald energy   TEWEN  =    401223.94684254
  -Hartree energ DENC   =   -497029.31815328
  -exchange      EXHF   =         0.00000000
  -V(xc)+E(xc)   XCENC  =      5221.05989643
  PAW double counting   =    127883.95185620  -127201.76657766
  entropy T*S    EENTRO =        -0.00000000
  eigenvalues    EBANDS =    -18760.34222929
  atomic energy  EATOM  =    105322.53856674
  Solvation  Ediel_sol  =         0.00000000
  ---------------------------------------------------
  free energy    TOTEN  =     -1278.59847312 eV

  energy without entropy =    -1278.59847312  energy(sigma->0) =    -1278.59847312


--------------------------------------------------------------------------------------------------------




--------------------------------------- Iteration      1(   2)  ---------------------------------------


    POTLOK:  cpu time    0.4210: real time    0.4461
    SETDIJ:  cpu time    0.0734: real time    0.0733
     EDDAV:  cpu time   25.8547: real time   25.8218
       DOS:  cpu time    0.0022: real time    0.0022
    CHARGE:  cpu time    1.0215: real time    1.0204
    MIXING:  cpu time    0.0132: real time    0.0146
    --------------------------------------------
      LOOP:  cpu time   27.3861: real time   27.3785

 eigenvalue-minimisations  :  6272
 total energy-change (2. order) :-0.1737959E+01  (-0.1123161E+00)
 number of electron    1178.0000059 magnetization       0.0000000
 augmentation part       73.1040056 magnetization       0.0000000

 Broyden mixing:
  rms(total) = 0.39990E-01    rms(broyden)= 0.39875E-01
  rms(prec ) = 0.41967E-01
  weight for this iteration     100.00

 eigenvalues of (default mixing * dielectric matrix)
  average eigenvalue GAMMA=   0.7377
  0.7377

 Free energy of the ion-electron system (eV)
  ---------------------------------------------------
  alpha Z        PSCENC =      2061.33132521
  Ewald energy   TEWEN  =    401223.94684254
  -Hartree energ DENC   =   -497031.16779537
  -exchange      EXHF   =         0.00000000
  -V(xc)+E(xc)   XCENC  =      5221.15108334
  PAW double counting   =    127739.59600409  -127056.35636294
  entropy T*S    EENTRO =        -0.00000000
  eigenvalues    EBANDS =    -18761.37609614
  atomic energy  EATOM  =    105322.53856674
  Solvation  Ediel_sol  =         0.00000000
  ---------------------------------------------------
  free energy    TOTEN  =     -1280.33643254 eV

  energy without entropy =    -1280.33643254  energy(sigma->0) =    -1280.33643254


--------------------------------------------------------------------------------------------------------




--------------------------------------- Iteration      1(   3)  ---------------------------------------


    POTLOK:  cpu time    0.4323: real time    0.4474
    SETDIJ:  cpu time    0.0743: real time    0.0742
     EDDAV:  cpu time   27.5869: real time   27.5396
       DOS:  cpu time    0.0021: real time    0.0021
    CHARGE:  cpu time    1.0208: real time    1.0195
    MIXING:  cpu time    0.0082: real time    0.0082
    --------------------------------------------
      LOOP:  cpu time   29.1246: real time   29.0910

 eigenvalue-minimisations  :  6784
 total energy-change (2. order) :-0.9805960E-02  (-0.3799037E-02)
 number of electron    1178.0000059 magnetization       0.0000000
 augmentation part       73.1342283 magnetization      -0.0000000

 Broyden mixing:
  rms(total) = 0.27532E-01    rms(broyden)= 0.27514E-01
  rms(prec ) = 0.27931E-01
  weight for this iteration     100.00

 eigenvalues of (default mixing * dielectric matrix)
  average eigenvalue GAMMA=   0.6953
  0.6953  0.6953

 Free energy of the ion-electron system (eV)
  ---------------------------------------------------
  alpha Z        PSCENC =      2061.33132521
  Ewald energy   TEWEN  =    401223.94684254
  -Hartree energ DENC   =   -497028.64099740
  -exchange      EXHF   =         0.00000000
  -V(xc)+E(xc)   XCENC  =      5220.96488698
  PAW double counting   =    127768.54969565  -127084.58455472
  entropy T*S    EENTRO =        -0.00000000
  eigenvalues    EBANDS =    -18764.45200350
  atomic energy  EATOM  =    105322.53856674
  Solvation  Ediel_sol  =         0.00000000
  ---------------------------------------------------
  free energy    TOTEN  =     -1280.34623850 eV

  energy without entropy =    -1280.34623850  energy(sigma->0) =    -1280.34623850


--------------------------------------------------------------------------------------------------------




--------------------------------------- Iteration      1(   4)  ---------------------------------------


    POTLOK:  cpu time    0.4365: real time    0.4457
    SETDIJ:  cpu time    0.0740: real time    0.0740
     EDDAV:  cpu time   24.4146: real time   24.3628
       DOS:  cpu time    0.0020: real time    0.0020
    CHARGE:  cpu time    1.0252: real time    1.0241
    MIXING:  cpu time    0.0092: real time    0.0098
    --------------------------------------------
      LOOP:  cpu time   25.9615: real time   25.9183

 eigenvalue-minimisations  :  5792
 total energy-change (2. order) :-0.3049555E-04  (-0.1933954E-03)
 number of electron    1178.0000059 magnetization       0.0000000
 augmentation part       73.1314353 magnetization       0.0000000

 Broyden mixing:
  rms(total) = 0.22327E-01    rms(broyden)= 0.22325E-01
  rms(prec ) = 0.22614E-01
  weight for this iteration     100.00

 eigenvalues of (default mixing * dielectric matrix)
  average eigenvalue GAMMA=   0.6844
  0.7705  0.7705  0.5122

 Free energy of the ion-electron system (eV)
  ---------------------------------------------------
  alpha Z        PSCENC =      2061.33132521
  Ewald energy   TEWEN  =    401223.94684254
  -Hartree energ DENC   =   -497029.26305107
  -exchange      EXHF   =         0.00000000
  -V(xc)+E(xc)   XCENC  =      5221.02833638
  PAW double counting   =    127797.48062296  -127113.46108679
  entropy T*S    EENTRO =        -0.00000000
  eigenvalues    EBANDS =    -18763.94782496
  atomic energy  EATOM  =    105322.53856674
  Solvation  Ediel_sol  =         0.00000000
  ---------------------------------------------------
  free energy    TOTEN  =     -1280.34626900 eV

  energy without entropy =    -1280.34626900  energy(sigma->0) =    -1280.34626900


--------------------------------------------------------------------------------------------------------




--------------------------------------- Iteration      1(   5)  ---------------------------------------


    POTLOK:  cpu time    0.4191: real time    0.4470
    SETDIJ:  cpu time    0.0739: real time    0.0739
     EDDAV:  cpu time   27.4523: real time   27.4006
       DOS:  cpu time    0.0021: real time    0.0021
    CHARGE:  cpu time    1.0247: real time    1.0235
    MIXING:  cpu time    0.0089: real time    0.0089
    --------------------------------------------
      LOOP:  cpu time   28.9811: real time   28.9560

 eigenvalue-minimisations  :  6784
 total energy-change (2. order) :-0.7170165E-05  (-0.1776103E-04)
 number of electron    1178.0000059 magnetization       0.0000000
 augmentation part       73.1374646 magnetization       0.0000000

 Broyden mixing:
  rms(total) = 0.18894E-01    rms(broyden)= 0.18894E-01
  rms(prec ) = 0.19137E-01
  weight for this iteration     100.00

 eigenvalues of (default mixing * dielectric matrix)
  average eigenvalue GAMMA=   0.7295
  0.9111  0.9111  0.5478  0.5478

 Free energy of the ion-electron system (eV)
  ---------------------------------------------------
  alpha Z        PSCENC =      2061.33132521
  Ewald energy   TEWEN  =    401223.94684254
  -Hartree energ DENC   =   -497029.29416722
  -exchange      EXHF   =         0.00000000
  -V(xc)+E(xc)   XCENC  =      5221.03216073
  PAW double counting   =    127814.87125264  -127130.81720712
  entropy T*S    EENTRO =        -0.00000000
  eigenvalues    EBANDS =    -18763.95504969
  atomic energy  EATOM  =    105322.53856674
  Solvation  Ediel_sol  =         0.00000000
  ---------------------------------------------------
  free energy    TOTEN  =     -1280.34627617 eV

  energy without entropy =    -1280.34627617  energy(sigma->0) =    -1280.34627617


--------------------------------------------------------------------------------------------------------




--------------------------------------- Iteration      1(   6)  ---------------------------------------


    POTLOK:  cpu time    0.4309: real time    0.4464
    SETDIJ:  cpu time    0.0739: real time    0.0740
     EDDAV:  cpu time   27.3628: real time   27.3056
       DOS:  cpu time    0.0022: real time    0.0022
    CHARGE:  cpu time    1.0306: real time    1.0296
    MIXING:  cpu time    0.0115: real time    0.0115
    --------------------------------------------
      LOOP:  cpu time   28.9119: real time   28.8693

 eigenvalue-minimisations  :  6720
 total energy-change (2. order) :-0.1646939E-04  (-0.2065202E-05)
 number of electron    1178.0000059 magnetization       0.0000000
 augmentation part       73.1387512 magnetization       0.0000000

 Broyden mixing:
  rms(total) = 0.16260E-01    rms(broyden)= 0.16260E-01
  rms(prec ) = 0.16481E-01
  weight for this iteration     100.00

 eigenvalues of (default mixing * dielectric matrix)
  average eigenvalue GAMMA=   0.8043
  1.1393  1.1393  0.5255  0.6088  0.6088

 Free energy of the ion-electron system (eV)
  ---------------------------------------------------
  alpha Z        PSCENC =      2061.33132521
  Ewald energy   TEWEN  =    401223.94684254
  -Hartree energ DENC   =   -497029.37888799
  -exchange      EXHF   =         0.00000000
  -V(xc)+E(xc)   XCENC  =      5221.04038422
  PAW double counting   =    127829.57903346  -127145.51572541
  entropy T*S    EENTRO =        -0.00000000
  eigenvalues    EBANDS =    -18763.88783139
  atomic energy  EATOM  =    105322.53856674
  Solvation  Ediel_sol  =         0.00000000
  ---------------------------------------------------
  free energy    TOTEN  =     -1280.34629263 eV

  energy without entropy =    -1280.34629263  energy(sigma->0) =    -1280.34629263


--------------------------------------------------------------------------------------------------------




--------------------------------------- Iteration      1(   7)  ---------------------------------------


    POTLOK:  cpu time    0.4202: real time    0.4478
    SETDIJ:  cpu time    0.0740: real time    0.0740
     EDDAV:  cpu time   27.6016: real time   27.5452
       DOS:  cpu time    0.0021: real time    0.0021
    CHARGE:  cpu time    1.0704: real time    1.0690
    MIXING:  cpu time    0.0102: real time    0.0102
    --------------------------------------------
      LOOP:  cpu time   29.1787: real time   29.1485

 eigenvalue-minimisations  :  6720
 total energy-change (2. order) :-0.1117725E-04  (-0.2280262E-05)
 number of electron    1178.0000059 magnetization       0.0000000
 augmentation part       73.1400135 magnetization       0.0000000

 Broyden mixing:
  rms(total) = 0.12922E-01    rms(broyden)= 0.12922E-01
  rms(prec ) = 0.13095E-01
  weight for this iteration     100.00

 eigenvalues of (default mixing * dielectric matrix)
  average eigenvalue GAMMA=   0.8626
  1.3481  1.3481  0.6895  0.6895  0.5500  0.5500

 Free energy of the ion-electron system (eV)
  ---------------------------------------------------
  alpha Z        PSCENC =      2061.33132521
  Ewald energy   TEWEN  =    401223.94684254
  -Hartree energ DENC   =   -497029.38187709
  -exchange      EXHF   =         0.00000000
  -V(xc)+E(xc)   XCENC  =      5221.04573290
  PAW double counting   =    127847.26590605  -127163.19102401
  entropy T*S    EENTRO =        -0.00000000
  eigenvalues    EBANDS =    -18763.90177615
  atomic energy  EATOM  =    105322.53856674
  Solvation  Ediel_sol  =         0.00000000
  ---------------------------------------------------
  free energy    TOTEN  =     -1280.34630381 eV

  energy without entropy =    -1280.34630381  energy(sigma->0) =    -1280.34630381


--------------------------------------------------------------------------------------------------------




--------------------------------------- Iteration      1(   8)  ---------------------------------------


    POTLOK:  cpu time    0.4188: real time    0.4500
    SETDIJ:  cpu time    0.0737: real time    0.0736
     EDDAV:  cpu time   26.4167: real time   26.3679
       DOS:  cpu time    0.0020: real time    0.0020
    CHARGE:  cpu time    1.0735: real time    1.0723
    MIXING:  cpu time    0.0107: real time    0.0107
    --------------------------------------------
      LOOP:  cpu time   27.9952: real time   27.9764

 eigenvalue-minimisations  :  6336
 total energy-change (2. order) :-0.7810813E-05  (-0.1545912E-05)
 number of electron    1178.0000059 magnetization       0.0000000
 augmentation part       73.1418404 magnetization       0.0000000

 Broyden mixing:
  rms(total) = 0.10685E-01    rms(broyden)= 0.10685E-01
  rms(prec ) = 0.10821E-01
  weight for this iteration     100.00

 eigenvalues of (default mixing * dielectric matrix)
  average eigenvalue GAMMA=   0.9030
  1.5662  1.5662  0.7610  0.7610  0.5204  0.5730  0.5730

 Free energy of the ion-electron system (eV)
  ---------------------------------------------------
  alpha Z        PSCENC =      2061.33132521
  Ewald energy   TEWEN  =    401223.94684254
  -Hartree energ DENC   =   -497029.38269962
  -exchange      EXHF   =         0.00000000
  -V(xc)+E(xc)   XCENC  =      5221.04873142
  PAW double counting   =    127859.31165527  -127175.22838479
  entropy T*S    EENTRO =        -0.00000000
  eigenvalues    EBANDS =    -18763.91234839
  atomic energy  EATOM  =    105322.53856674
  Solvation  Ediel_sol  =         0.00000000
  ---------------------------------------------------
  free energy    TOTEN  =     -1280.34631162 eV

  energy without entropy =    -1280.34631162  energy(sigma->0) =    -1280.34631162


--------------------------------------------------------------------------------------------------------




--------------------------------------- Iteration      1(   9)  ---------------------------------------


    POTLOK:  cpu time    0.4203: real time    0.4527
    SETDIJ:  cpu time    0.0737: real time    0.0736
     EDDAV:  cpu time   19.0885: real time   19.0381
       DOS:  cpu time    0.0022: real time    0.0022
    CHARGE:  cpu time    1.0716: real time    1.0704
    MIXING:  cpu time    0.0107: real time    0.0107
    --------------------------------------------
      LOOP:  cpu time   20.6671: real time   20.6478

 eigenvalue-minimisations  :  3968
 total energy-change (2. order) :-0.5505935E-05  (-0.3306770E-06)
 number of electron    1178.0000059 magnetization       0.0000000
 augmentation part       73.1424732 magnetization       0.0000000

 Broyden mixing:
  rms(total) = 0.92740E-02    rms(broyden)= 0.92740E-02
  rms(prec ) = 0.93948E-02
  weight for this iteration     100.00

 eigenvalues of (default mixing * dielectric matrix)
  average eigenvalue GAMMA=   1.0574
  2.0722  2.0722  0.9180  0.9180  0.6612  0.6612  0.5783  0.5783

 Free energy of the ion-electron system (eV)
  ---------------------------------------------------
  alpha Z        PSCENC =      2061.33132521
  Ewald energy   TEWEN  =    401223.94684254
  -Hartree energ DENC   =   -497029.37250245
  -exchange      EXHF   =         0.00000000
  -V(xc)+E(xc)   XCENC  =      5221.04986324
  PAW double counting   =    127867.02166173  -127182.93773294
  entropy T*S    EENTRO =        -0.00000000
  eigenvalues    EBANDS =    -18763.92434119
  atomic energy  EATOM  =    105322.53856674
  Solvation  Ediel_sol  =         0.00000000
  ---------------------------------------------------
  free energy    TOTEN  =     -1280.34631713 eV

  energy without entropy =    -1280.34631713  energy(sigma->0) =    -1280.34631713


--------------------------------------------------------------------------------------------------------




--------------------------------------- Iteration      1(  10)  ---------------------------------------


    POTLOK:  cpu time    0.4186: real time    0.4534
    SETDIJ:  cpu time    0.0737: real time    0.0737
     EDDAV:  cpu time   26.5963: real time   26.5407
       DOS:  cpu time    0.0021: real time    0.0021
    CHARGE:  cpu time    1.0712: real time    1.0700
    MIXING:  cpu time    0.0115: real time    0.0115
    --------------------------------------------
      LOOP:  cpu time   28.1734: real time   28.1514

 eigenvalue-minimisations  :  6432
 total energy-change (2. order) :-0.7721887E-05  (-0.2595897E-05)
 number of electron    1178.0000059 magnetization       0.0000000
 augmentation part       73.1437300 magnetization       0.0000000

 Broyden mixing:
  rms(total) = 0.54242E-02    rms(broyden)= 0.54242E-02
  rms(prec ) = 0.54969E-02
  weight for this iteration     100.00

 eigenvalues of (default mixing * dielectric matrix)
  average eigenvalue GAMMA=   1.1259
  2.4213  2.4213  1.0660  1.0660  0.6871  0.6871  0.5894  0.5974  0.5974

 Free energy of the ion-electron system (eV)
  ---------------------------------------------------
  alpha Z        PSCENC =      2061.33132521
  Ewald energy   TEWEN  =    401223.94684254
  -Hartree energ DENC   =   -497029.34583950
  -exchange      EXHF   =         0.00000000
  -V(xc)+E(xc)   XCENC  =      5221.05339128
  PAW double counting   =    127887.31479636  -127203.22313862
  entropy T*S    EENTRO =        -0.00000000
  eigenvalues    EBANDS =    -18763.96226886
  atomic energy  EATOM  =    105322.53856674
  Solvation  Ediel_sol  =         0.00000000
  ---------------------------------------------------
  free energy    TOTEN  =     -1280.34632485 eV

  energy without entropy =    -1280.34632485  energy(sigma->0) =    -1280.34632485


--------------------------------------------------------------------------------------------------------




--------------------------------------- Iteration      1(  11)  ---------------------------------------


    POTLOK:  cpu time    0.4188: real time    0.4490
    SETDIJ:  cpu time    0.0737: real time    0.0737
     EDDAV:  cpu time   27.6120: real time   27.5636
       DOS:  cpu time    0.0020: real time    0.0020
    CHARGE:  cpu time    1.0714: real time    1.0701
    MIXING:  cpu time    0.0118: real time    0.0118
    --------------------------------------------
      LOOP:  cpu time   29.1897: real time   29.1702

 eigenvalue-minimisations  :  6752
 total energy-change (2. order) :-0.5715687E-05  (-0.2640331E-05)
 number of electron    1178.0000059 magnetization       0.0000000
 augmentation part       73.1453986 magnetization       0.0000000

 Broyden mixing:
  rms(total) = 0.19476E-02    rms(broyden)= 0.19475E-02
  rms(prec ) = 0.19707E-02
  weight for this iteration     100.00

 eigenvalues of (default mixing * dielectric matrix)
  average eigenvalue GAMMA=   1.1481
  2.6618  2.6618  1.1442  1.1442  0.6824  0.6824  0.6638  0.6638  0.5882  0.5882

 Free energy of the ion-electron system (eV)
  ---------------------------------------------------
  alpha Z        PSCENC =      2061.33132521
  Ewald energy   TEWEN  =    401223.94684254
  -Hartree energ DENC   =   -497029.34479685
  -exchange      EXHF   =         0.00000000
  -V(xc)+E(xc)   XCENC  =      5221.05804028
  PAW double counting   =    127906.18380657  -127222.08026154
  entropy T*S    EENTRO =        -0.00000000
  eigenvalues    EBANDS =    -18763.97985352
  atomic energy  EATOM  =    105322.53856674
  Solvation  Ediel_sol  =         0.00000000
  ---------------------------------------------------
  free energy    TOTEN  =     -1280.34633057 eV

  energy without entropy =    -1280.34633057  energy(sigma->0) =    -1280.34633057


--------------------------------------------------------------------------------------------------------




--------------------------------------- Iteration      1(  12)  ---------------------------------------


    POTLOK:  cpu time    0.4377: real time    0.4496
    SETDIJ:  cpu time    0.0738: real time    0.0738
     EDDAV:  cpu time   17.8557: real time   17.8168
       DOS:  cpu time    0.0022: real time    0.0022
    CHARGE:  cpu time    1.0386: real time    1.0374
    MIXING:  cpu time    0.0125: real time    0.0125
    --------------------------------------------
      LOOP:  cpu time   19.4205: real time   19.3924

 eigenvalue-minimisations  :  3552
 total energy-change (2. order) :-0.1212698E-05  (-0.2523991E-06)
 number of electron    1178.0000059 magnetization      -0.0000000
 augmentation part       73.1460515 magnetization       0.0000000

 Broyden mixing:
  rms(total) = 0.13601E-02    rms(broyden)= 0.13601E-02
  rms(prec ) = 0.13797E-02
  weight for this iteration     100.00

 eigenvalues of (default mixing * dielectric matrix)
  average eigenvalue GAMMA=   1.1434
  2.7576  2.7576  1.2518  1.2518  0.7292  0.7292  0.6401  0.6401  0.5864  0.6168
  0.6168

 Free energy of the ion-electron system (eV)
  ---------------------------------------------------
  alpha Z        PSCENC =      2061.33132521
  Ewald energy   TEWEN  =    401223.94684254
  -Hartree energ DENC   =   -497029.34910019
  -exchange      EXHF   =         0.00000000
  -V(xc)+E(xc)   XCENC  =      5221.05901579
  PAW double counting   =    127909.52720845  -127225.42129796
  entropy T*S    EENTRO =        -0.00000000
  eigenvalues    EBANDS =    -18763.97889235
  atomic energy  EATOM  =    105322.53856674
  Solvation  Ediel_sol  =         0.00000000
  ---------------------------------------------------
  free energy    TOTEN  =     -1280.34633178 eV

  energy without entropy =    -1280.34633178  energy(sigma->0) =    -1280.34633178


--------------------------------------------------------------------------------------------------------




--------------------------------------- Iteration      1(  13)  ---------------------------------------


    POTLOK:  cpu time    0.4510: real time    0.4510
    SETDIJ:  cpu time    0.0737: real time    0.0735
     EDDAV:  cpu time   16.5431: real time   16.5133
       DOS:  cpu time    0.0020: real time    0.0020
    --------------------------------------------
      LOOP:  cpu time   17.0696: real time   17.0397

 eigenvalue-minimisations  :  3136
 total energy-change (2. order) :-0.4041940E-06  (-0.1171905E-06)
 number of electron    1178.0000059 magnetization      -0.0000000
 augmentation part       73.1460515 magnetization       0.0000000

 Free energy of the ion-electron system (eV)
  ---------------------------------------------------
  alpha Z        PSCENC =      2061.33132521
  Ewald energy   TEWEN  =    401223.94684254
  -Hartree energ DENC   =   -497029.34412832
  -exchange      EXHF   =         0.00000000
  -V(xc)+E(xc)   XCENC  =      5221.05967209
  PAW double counting   =    127912.70860399  -127228.59942513
  entropy T*S    EENTRO =        -0.00000000
  eigenvalues    EBANDS =    -18763.98778930
  atomic energy  EATOM  =    105322.53856674
  Solvation  Ediel_sol  =         0.00000000
  ---------------------------------------------------
  free energy    TOTEN  =     -1280.34633218 eV

  energy without entropy =    -1280.34633218  energy(sigma->0) =    -1280.34633218


--------------------------------------------------------------------------------------------------------




 average (electrostatic) potential at core
  the test charge radii are     1.0638  0.7215  0.5201
  (the norm of the test charge is              1.0000)
       1 -85.0160       2 -85.0598       3 -85.0752       4 -85.0398       5 -85.3621
       6 -85.4108       7 -85.4179       8 -85.3755       9 -85.9134      10 -85.9787
[...]


 Dimer: Init Mode:
 Dimer: MODECAR found
 Dimer: initial mode
    0.0000000000E+00    0.0000000000E+00    0.0000000000E+00
    0.0000000000E+00    0.0000000000E+00    0.0000000000E+00
    0.0000000000E+00    0.0000000000E+00    0.0000000000E+00
    0.0000000000E+00    0.0000000000E+00    0.0000000000E+00
    0.0000000000E+00    0.0000000000E+00    0.0000000000E+00
    0.0000000000E+00    0.0000000000E+00    0.0000000000E+00
    0.0000000000E+00    0.0000000000E+00    0.0000000000E+00
    0.0000000000E+00    0.0000000000E+00    0.0000000000E+00
    0.0000000000E+00    0.0000000000E+00    0.0000000000E+00
    0.0000000000E+00    0.0000000000E+00    0.0000000000E+00
    0.0000000000E+00    0.0000000000E+00    0.0000000000E+00
    0.0000000000E+00    0.0000000000E+00    0.0000000000E+00
    0.0000000000E+00    0.0000000000E+00    0.0000000000E+00
    0.0000000000E+00    0.0000000000E+00    0.0000000000E+00
    0.0000000000E+00    0.0000000000E+00    0.0000000000E+00
    0.0000000000E+00    0.0000000000E+00    0.0000000000E+00
   -1.9091698945E-03   -2.4923165007E-03   -3.0310602414E-04
    9.8652487757E-06   -2.7813123667E-04   -4.0267679236E-04
    1.7892467742E-03   -1.6147959285E-03   -2.7547427105E-04
    2.8890514431E-03    4.1008742560E-03   -3.3380535445E-03
    8.8151677252E-04    2.3174555047E-04   -6.8051201684E-04
   -4.7026893314E-04   -7.3129277845E-05    1.2708840707E-04
   -7.9048813649E-04   -2.1348933985E-03   -1.7822986535E-03
    6.1426898288E-04   -2.8846650145E-03    9.6750064494E-04
   -1.3495996106E-04   -3.2126106137E-04    2.9433095731E-04
   -2.8287318044E-03   -1.3141527349E-04    3.5789854714E-04
   -3.1409428528E-04   -6.2876025983E-04   -1.7597171207E-04
    4.7548620685E-03   -3.9764321808E-03    3.0073679842E-04
   -7.7371783787E-04   -6.8010036879E-04   -1.6426155973E-03
   -3.7067224763E-03    2.6699806142E-04   -6.6929007883E-03
    1.3569794938E-04   -7.3482216464E-03   -1.0644543913E-02
   -5.0887403962E-03   -3.7393732791E-03    5.9485594541E-03
   -2.2721256680E-03    1.0033820157E-03    1.3353735766E-03
   -2.9683716348E-04    1.1942325843E-03   -9.4152169461E-05
   -1.5324210724E-02    1.3312379101E-02   -2.2791352347E-02
    4.6113264187E-03   -1.4077545912E-02    1.0086267459E-03
    2.3996192770E-03   -3.7039062451E-05   -3.0975038443E-04
   -1.2947540453E-03   -9.1648989565E-04    1.3007440827E-03
    1.3374501834E-03   -4.1722647650E-03   -1.2272693516E-03
   -1.4734699111E-03   -4.8096455295E-03    2.9477635985E-02
    1.8542156944E-03   -2.9580997159E-03   -3.1206534240E-03
    1.9453565005E-03   -7.7654121660E-04    5.8564615638E-04
    9.1724494603E-04    4.1194574389E-03   -2.6699223479E-03
    1.9089026316E-02   -2.9457688720E-02   -3.8903439946E-02
   -1.2123236510E-03   -1.3915333381E-03   -7.0153538573E-03
   -1.1896757585E-03   -7.2635929669E-05    1.2320277866E-03
    1.0418613305E-02    3.0693688313E-03    6.5178998710E-03
    1.5551549579E-02   -1.6150992473E-02    1.0769190825E-03
    1.4063059692E-01    7.7044484379E-02   -1.6967371784E-01
    0.0000000000E+00    0.0000000000E+00    0.0000000000E+00
    0.0000000000E+00    0.0000000000E+00    0.0000000000E+00
    0.0000000000E+00    0.0000000000E+00    0.0000000000E+00
    0.0000000000E+00    0.0000000000E+00    0.0000000000E+00
    0.0000000000E+00    0.0000000000E+00    0.0000000000E+00
    0.0000000000E+00    0.0000000000E+00    0.0000000000E+00
    0.0000000000E+00    0.0000000000E+00    0.0000000000E+00
    0.0000000000E+00    0.0000000000E+00    0.0000000000E+00
    0.0000000000E+00    0.0000000000E+00    0.0000000000E+00
    0.0000000000E+00    0.0000000000E+00    0.0000000000E+00
    0.0000000000E+00    0.0000000000E+00    0.0000000000E+00
    0.0000000000E+00    0.0000000000E+00    0.0000000000E+00
    0.0000000000E+00    0.0000000000E+00    0.0000000000E+00
    0.0000000000E+00    0.0000000000E+00    0.0000000000E+00
    0.0000000000E+00    0.0000000000E+00    0.0000000000E+00
    0.0000000000E+00    0.0000000000E+00    0.0000000000E+00
    0.0000000000E+00    0.0000000000E+00    0.0000000000E+00
    0.0000000000E+00    0.0000000000E+00    0.0000000000E+00
    0.0000000000E+00    0.0000000000E+00    0.0000000000E+00
    0.0000000000E+00    0.0000000000E+00    0.0000000000E+00
    0.0000000000E+00    0.0000000000E+00    0.0000000000E+00
    0.0000000000E+00    0.0000000000E+00    0.0000000000E+00
    0.0000000000E+00    0.0000000000E+00    0.0000000000E+00
    0.0000000000E+00    0.0000000000E+00    0.0000000000E+00
    0.0000000000E+00    0.0000000000E+00    0.0000000000E+00
    0.0000000000E+00    0.0000000000E+00    0.0000000000E+00
    0.0000000000E+00    0.0000000000E+00    0.0000000000E+00
    0.0000000000E+00    0.0000000000E+00    0.0000000000E+00
    0.0000000000E+00    0.0000000000E+00    0.0000000000E+00
    0.0000000000E+00    0.0000000000E+00    0.0000000000E+00
    0.0000000000E+00    0.0000000000E+00    0.0000000000E+00
    0.0000000000E+00    0.0000000000E+00    0.0000000000E+00
   -8.9807232911E-04   -4.6096977241E-04   -3.6154540270E-04
    1.6309142728E-04   -9.6608210070E-04   -7.6536231348E-04
   -3.5173576991E-04    7.4794578529E-04   -1.0439355768E-03
   -1.4783915061E-03   -2.1061663325E-03   -4.6561083588E-03
    1.1221654928E-03   -3.3464504281E-04   -5.3259099110E-04
   -2.5946501176E-03   -5.9250319730E-04   -2.2911257801E-03
   -8.4691443827E-04   -9.7037869751E-05   -1.5736817966E-03
    6.4673142638E-03   -1.8318578362E-03   -2.5993743772E-03
    1.9845337858E-03   -6.6441132824E-04   -1.4004509201E-03
   -1.0248870312E-03   -2.7427689062E-04   -3.8792253348E-04
   -3.7009441178E-03   -3.3127611525E-03   -3.4541307542E-03
    3.2689039664E-04   -1.7701799993E-05   -2.8126067782E-03
    3.7946395741E-04    5.1187848755E-04   -2.6622254981E-04
    7.8476942763E-04   -1.7046641690E-03   -5.5828751763E-03
   -4.9434410715E-05    3.8544402398E-04   -4.1255834122E-04
    1.3733684261E-03   -2.6129709893E-04    1.3323833638E-04
    2.8170322911E-03   -7.1748781377E-04   -3.5463595659E-03
   -3.9247732026E-04   -1.1888711723E-04   -3.2760307951E-03
   -1.2330643423E-04   -1.0684779167E-03    1.6287826165E-03
    6.9199410842E-04    2.1218355396E-03   -3.4190352536E-04
    5.0592500348E-04    8.2654546501E-04   -1.7180840212E-03
    1.7624985904E-03   -3.0279487716E-05    1.4032392101E-03
   -8.1053510516E-03   -1.3808835593E-03   -1.0707064946E-02
    4.4971626272E-04   -2.5284975870E-03   -1.4967248267E-03
    6.8430436735E-04   -6.4927856620E-04   -3.5189249096E-04
    2.6142022619E-05   -8.8394833893E-04    6.0677062711E-04
   -3.4535928898E-03   -2.7257973558E-03   -7.0881025455E-04
   -7.9804459055E-04   -7.7033051278E-04   -3.1601705318E-02
    9.1881336977E-04    1.7402678473E-04   -2.9523853883E-03
    1.8145024422E-03    9.7508491983E-04   -7.6495243439E-04
    5.0814312448E-04   -4.0567632788E-04   -1.3040247151E-03
    7.0921633039E-03   -1.4690058573E-02   -1.1581197261E-02
    1.0792592279E-02    1.2091846541E-03   -1.5142620343E-03
    2.9294427745E-03   -1.1255683268E-03    8.0004436076E-04
   -1.5925348628E-02    2.7372243319E-03   -1.6437983701E-04
   -1.7313237152E-03   -8.9173083276E-04   -7.3400025224E-04
    2.6416169706E-03    6.6006979002E-04    4.7209904931E-04
    6.2528563229E-04    2.9866947066E-03    2.8296801371E-03
   -1.2389938834E-02   -1.2689270880E-02   -7.4199923530E-03
    3.5111832608E-03    1.1161056205E-03   -1.2690830771E-03
    4.4585205608E-03   -3.7269969683E-04   -2.7822516969E-03
   -2.1839709168E-03    4.6305928068E-03   -4.1916634984E-03
    9.0161762263E-04   -8.7800357029E-03   -7.3067011824E-03
    9.8780273905E-03   -1.6877082982E-03    5.8067230204E-03
    4.2085745537E-03   -1.9595067225E-03    2.1024387069E-03
   -2.3701612061E-04    4.8006298331E-04    3.7401832923E-04
   -2.4971405565E-02   -7.7385964022E-02   -8.1061532938E-02
    6.5666314030E-03    3.4872603828E-03    6.3982343029E-03
    5.5974379497E-03    1.3878311599E-03   -1.0437047014E-03
    7.6174573336E-03    2.4002322183E-03    1.6056000953E-02
   -1.1811075469E-03   -4.5159731699E-03   -7.7121060201E-04
    2.0429469458E-03   -3.4372999303E-02   -3.5849499529E-02
    9.7054150840E-03   -4.1586949526E-03    3.0370905774E-03
    4.1444624187E-03   -2.8302057723E-03    9.2326182784E-03
    2.4712041480E-03   -5.5490698370E-03    5.3373696238E-03
    5.6754575304E-03    4.1393567536E-02   -4.6458106407E-02
    7.5804361970E-03   -2.0385301737E-03    5.4561667163E-03
    5.7769931034E-03    1.5106437638E-03    3.3312006672E-03
   -3.2473143871E-03   -4.0054647850E-03    1.1223235254E-02
    6.5036584324E-03   -1.7981663707E-02    4.1504626370E-03
   -4.6461670245E-03   -3.0401004857E-03   -9.1512950718E-04
    1.9904227065E-03    1.0426779843E-03    1.1474471755E-04
    4.4001665870E-02    4.0577469214E-02    8.3610525553E-03
   -5.7613968153E-03   -2.0486331656E-03    1.6154902567E-03
    6.8088455923E-02   -4.3013317991E-02   -1.3363515348E-01
    1.6432196990E-02    2.2236189120E-02   -2.2000404358E-02
    1.9172429246E-01    3.4502889098E-01    6.4016222008E-02
   -5.5108743445E-01   -1.8138363159E-01    6.2418446335E-01
 Dimer: -----------------
 Dimer: Itr    1 Rot    0

 Dimer: Central Point
 Dimer: F0      0.099935

 Dimer: Projection
 Dimer: N*F0 -1.485563730276088E-003
 Dimer: F0sq  9.986967131910673E-003
 Dimer: Feffsq   2.206899596711804E-006
 Dimer: Feff
    0.0000000000E+00    0.0000000000E+00    0.0000000000E+00
    0.0000000000E+00    0.0000000000E+00    0.0000000000E+00
    0.0000000000E+00    0.0000000000E+00    0.0000000000E+00
    0.0000000000E+00    0.0000000000E+00    0.0000000000E+00
    0.0000000000E+00    0.0000000000E+00    0.0000000000E+00
    0.0000000000E+00    0.0000000000E+00    0.0000000000E+00
    0.0000000000E+00    0.0000000000E+00    0.0000000000E+00
    0.0000000000E+00    0.0000000000E+00    0.0000000000E+00
    0.0000000000E+00    0.0000000000E+00    0.0000000000E+00
    0.0000000000E+00    0.0000000000E+00    0.0000000000E+00
    0.0000000000E+00    0.0000000000E+00    0.0000000000E+00
    0.0000000000E+00    0.0000000000E+00    0.0000000000E+00
    0.0000000000E+00    0.0000000000E+00    0.0000000000E+00
    0.0000000000E+00    0.0000000000E+00    0.0000000000E+00
    0.0000000000E+00    0.0000000000E+00    0.0000000000E+00
    0.0000000000E+00    0.0000000000E+00    0.0000000000E+00
   -2.8361935502E-06   -3.7024949978E-06   -4.5028331589E-07
    1.4655455771E-08   -4.1318167745E-07   -5.9820203775E-07
    2.6580401123E-06   -2.3988822632E-06   -4.0923458570E-07
    4.2918700388E-06    6.0921100571E-06   -4.9588912754E-06
    1.3095493449E-06    3.4427278443E-07   -1.0109439702E-06
   -6.9861447055E-07   -1.0863820279E-07    1.8879792808E-07
   -1.1743205048E-06   -3.1715202008E-06   -2.6477182362E-06
    9.1253572160E-07   -4.2853537195E-06    1.4372838671E-06
   -2.0049162319E-07   -4.7725378072E-07    4.3724739488E-07
   -4.2022613713E-06   -1.9522576390E-07    5.3168110075E-07
   -4.6660707810E-07   -9.3406343704E-07   -2.6141719301E-07
    7.0636506314E-06   -5.9072434237E-06    4.4676368009E-07
   -1.1494071574E-06   -1.0103324408E-06   -2.4402101541E-06
   -5.5065724690E-06    3.9664263610E-07   -9.9427306614E-06
    2.0158795187E-07   -1.0916251560E-05   -1.5813148362E-05
   -7.5596481654E-06   -5.5550773174E-06    8.8369641724E-06
   -3.3753874830E-06    1.4905879301E-06    1.9837825518E-06
   -4.4097052386E-07    1.7741086127E-06   -1.3986904808E-07
   -2.2765091647E-05    1.9776387556E-05   -3.3858006411E-05
    6.8504192761E-06   -2.0913091618E-05    1.4983793111E-06
    3.5647873644E-06   -5.5023887781E-08   -4.6015393655E-07
   -1.9234396493E-06   -1.3615041481E-06    1.9323382316E-06
    1.9868674835E-06   -6.1981652080E-06   -1.8231868360E-06
   -2.1889334576E-06   -7.1450349541E-06    4.3790906873E-05
    2.7545555837E-06   -4.3944456485E-06   -4.6359295414E-06
    2.8899510596E-06   -1.1536014664E-06    8.7001468869E-07
    1.3626258236E-06    6.1197165596E-06   -3.9663398027E-06
    2.8357965141E-05   -4.3761273940E-05   -5.7793539367E-05
   -1.8009840453E-06   -2.0672114565E-06   -1.0421755245E-05
   -1.7673391576E-06   -1.0790530263E-07    1.8302557945E-06
    1.5477514046E-05    4.5597430106E-06    9.6827556459E-06
    2.3102818004E-05   -2.3993328626E-05    1.5998319294E-06
    2.0891571415E-04    1.1445449161E-04   -2.5206112120E-04
    0.0000000000E+00    0.0000000000E+00    0.0000000000E+00
    0.0000000000E+00    0.0000000000E+00    0.0000000000E+00
    0.0000000000E+00    0.0000000000E+00    0.0000000000E+00
    0.0000000000E+00    0.0000000000E+00    0.0000000000E+00
    0.0000000000E+00    0.0000000000E+00    0.0000000000E+00
    0.0000000000E+00    0.0000000000E+00    0.0000000000E+00
    0.0000000000E+00    0.0000000000E+00    0.0000000000E+00
    0.0000000000E+00    0.0000000000E+00    0.0000000000E+00
    0.0000000000E+00    0.0000000000E+00    0.0000000000E+00
    0.0000000000E+00    0.0000000000E+00    0.0000000000E+00
    0.0000000000E+00    0.0000000000E+00    0.0000000000E+00
    0.0000000000E+00    0.0000000000E+00    0.0000000000E+00
    0.0000000000E+00    0.0000000000E+00    0.0000000000E+00
    0.0000000000E+00    0.0000000000E+00    0.0000000000E+00
    0.0000000000E+00    0.0000000000E+00    0.0000000000E+00
    0.0000000000E+00    0.0000000000E+00    0.0000000000E+00
    0.0000000000E+00    0.0000000000E+00    0.0000000000E+00
    0.0000000000E+00    0.0000000000E+00    0.0000000000E+00
    0.0000000000E+00    0.0000000000E+00    0.0000000000E+00
    0.0000000000E+00    0.0000000000E+00    0.0000000000E+00
    0.0000000000E+00    0.0000000000E+00    0.0000000000E+00
    0.0000000000E+00    0.0000000000E+00    0.0000000000E+00
    0.0000000000E+00    0.0000000000E+00    0.0000000000E+00
    0.0000000000E+00    0.0000000000E+00    0.0000000000E+00
    0.0000000000E+00    0.0000000000E+00    0.0000000000E+00
    0.0000000000E+00    0.0000000000E+00    0.0000000000E+00
    0.0000000000E+00    0.0000000000E+00    0.0000000000E+00
    0.0000000000E+00    0.0000000000E+00    0.0000000000E+00
    0.0000000000E+00    0.0000000000E+00    0.0000000000E+00
    0.0000000000E+00    0.0000000000E+00    0.0000000000E+00
    0.0000000000E+00    0.0000000000E+00    0.0000000000E+00
    0.0000000000E+00    0.0000000000E+00    0.0000000000E+00
   -1.3341436793E-06   -6.8479997464E-07   -5.3709873710E-07
    2.4228270909E-07   -1.4351765293E-06   -1.1369944934E-06
   -5.2252590242E-07    1.1111211308E-06   -1.5508328296E-06
   -2.1962448006E-06   -3.1288443135E-06   -6.9169457021E-06
    1.6670483555E-06   -4.9713653811E-07   -7.9119785945E-07
   -3.8545181075E-06   -8.8020125998E-07   -3.4036133604E-06
   -1.2581453721E-06   -1.4415593977E-07   -2.3378046000E-06
    9.6076075026E-06   -2.7213415605E-06   -3.8615362962E-06
    2.9481514137E-06   -9.8702537122E-07   -2.0804590929E-06
   -1.5225350012E-06   -4.0745580076E-07   -5.7628364589E-07
   -5.4979883492E-06   -4.9213178152E-06   -5.1313313681E-06
    4.8561651702E-07   -2.6297152030E-08   -4.1783066172E-06
    5.6371789207E-07    7.6042811541E-07   -3.9549056418E-07
    1.1658249983E-06   -2.5323872618E-06   -8.2937168726E-06
   -7.3437967586E-08    5.7260166208E-07   -6.1288170834E-07
    2.0402263221E-06   -3.8817349300E-07    1.9793404001E-07
    4.1848809987E-06   -1.0658738730E-06   -5.2683431456E-06
   -5.8305007193E-07   -1.7661438935E-07   -4.8667525285E-06
   -1.8317956640E-07   -1.5872920396E-06    2.4196603796E-06
    1.0280013490E-06    3.1521219192E-06   -5.0791947653E-07
    7.5158383541E-07    1.2278859642E-06   -2.5523233075E-06
    2.6183039806E-06   -4.4982108722E-08    2.0846012754E-06
   -1.2041015543E-05   -2.0513905314E-06   -1.5906027341E-05
    6.6808216881E-07   -3.7562443073E-06   -2.2234801167E-06
    1.0165777486E-06   -9.6454468879E-07   -5.2275872153E-07
    3.8835640639E-08   -1.3131615917E-06    9.0139643623E-07
   -5.1305323362E-06   -4.0493456878E-06   -1.0529828058E-06
   -1.1855460989E-06   -1.1443750701E-06   -4.6946347235E-05
    1.3649558170E-06    2.5852787949E-07   -4.3859566506E-06
    2.6955590166E-06    1.4485507908E-06   -1.1363855919E-06
    7.5487899551E-07   -6.0265803893E-07   -1.9372118201E-06
    1.0535860573E-05   -2.1823018212E-05   -1.7204606604E-05
    1.6033083645E-05    1.7963208653E-06   -2.2495327563E-06
    4.3518739357E-06   -1.6721034822E-06    1.1885168850E-06
   -2.3658120314E-05    4.0663211891E-06   -2.4419672385E-07
   -2.5719917167E-06   -1.3247229823E-06   -1.0904041527E-06
    3.9242903608E-06    9.8057573950E-07    7.0133322475E-07
    9.2890165639E-07    4.4369253295E-06    4.2036701799E-06
   -1.8406043752E-05   -1.8850720583E-05   -1.1022871519E-05
    5.2160865026E-06    1.6580460290E-06   -1.8853037900E-06
    6.6234164358E-06   -5.5366915189E-07   -4.1332122094E-06
   -3.2444279820E-06    6.8790407234E-06   -6.2269832627E-06
    1.3394104388E-06   -1.3043302591E-05   -1.0854570265E-05
    1.4674439218E-05   -2.5071982351E-06    8.6262571108E-06
    6.2521057131E-06   -2.9109721162E-06    3.1233066881E-06
   -3.5210255227E-07    7.1316415625E-07    5.5562806436E-07
   -3.7096614401E-05   -1.1496178138E-04   -1.2042207325E-04
    9.7551494424E-06    5.1805475427E-06    9.5049848182E-06
    8.3153508005E-06    2.0617116349E-06   -1.5504898495E-06
    1.1316218332E-05    3.5656979277E-06    2.3852212669E-05
   -1.7546105332E-06   -6.7087659481E-06   -1.1456824987E-06
    3.0349278856E-06   -5.1063281065E-05   -5.3256716249E-05
    1.4418012636E-05   -6.1780063869E-06    4.5117916073E-06
    6.1568630507E-06   -4.2044510445E-06    1.3715642850E-05
    3.6711312524E-06   -8.2434968866E-06    7.9290027282E-06
    8.4312538599E-06    6.1492782598E-05   -6.9016477855E-05
    1.1261221074E-05   -3.0283664891E-06    8.1054833801E-06
    8.5820914244E-06    2.2441575849E-06    4.9487108895E-06
   -4.8240924743E-06   -5.9503732075E-06    1.6672831230E-05
    9.6615990813E-06   -2.6712907413E-05    6.1657767574E-06
   -6.9021772164E-06   -4.5162630179E-06   -1.3594832044E-06
    2.9568997807E-06    1.5489645958E-06    1.7046059063E-07
    6.5367278888E-05    6.0280416531E-05    1.2420876423E-05
   -8.5589221445E-06   -3.0433751274E-06    2.3999137320E-06
    1.0114974057E-04   -6.3899025126E-05   -1.9852353710E-04
    2.4411075857E-05    3.3033276056E-05   -3.2683002766E-05
    2.8481865509E-04    5.1256240634E-04    9.5100177564E-05
   -8.1867550483E-04   -2.6945694436E-04    9.2726579975E-04
 
 stress matrix after NEB project (eV)
    -52.36108    -24.97627     -0.10285
    -24.97627    -70.10154      1.28088
     -0.10285      1.28088     -9.08705
  FORCES: max atom, RMS     0.028999    0.008187
  FORCE total and by dimension    0.099935    0.023423
  Stress total and by dimension   94.812517   70.101539
 OPT: skip step - force has converged
 writing wavefunctions
     LOOP+:  cpu time  574.9002: real time  637.5314
    4ORBIT:  cpu time    0.0000: real time    0.0000

 total amount of memory used by VASP MPI-rank0    90867. kBytes
=======================================================================

   base      :      30000. kBytes
   nonlr-proj:       8308. kBytes
   fftplans  :       4220. kBytes
   grid      :      11656. kBytes
   one-center:        311. kBytes
   wavefun   :      36372. kBytes
 
  
  
 General timing and accounting informations for this job:
 ========================================================
  
                  Total CPU time used (sec):      897.434
                            User time (sec):      648.860
                          System time (sec):      248.575
                         Elapsed time (sec):      968.852
  
                   Maximum memory used (kb):      902976.
                   Average memory used (kb):           0.
  
                          Minor page faults:        97858
                          Major page faults:           56
                 Voluntary context switches:        14799
