       N       E                     dE             d eps       ncg     rms          rms(c)
DAV:   1    -0.132780683627E+04   -0.13278E+04   -0.13046E+00  6304   0.972E-01    0.947E-01
DAV:   2    -0.132955188835E+04   -0.17451E+01   -0.11637E+00  6112   0.943E-01    0.404E-01
DAV:   3    -0.132956167062E+04   -0.97823E-02   -0.40245E-02  6720   0.224E-01    0.275E-01
DAV:   4    -0.132956171008E+04   -0.39455E-04   -0.20406E-03  5504   0.557E-02    0.223E-01
DAV:   5    -0.132956171712E+04   -0.70448E-05   -0.19720E-04  6592   0.177E-02    0.188E-01
DAV:   6    -0.132956172932E+04   -0.12194E-04   -0.23213E-05  6656   0.710E-03    0.162E-01
DAV:   7    -0.132956173780E+04   -0.84834E-05   -0.23124E-05  6656   0.797E-03    0.129E-01
DAV:   8    -0.132956174343E+04   -0.56252E-05   -0.15829E-05  6080   0.619E-03    0.107E-01
DAV:   9    -0.132956174813E+04   -0.47076E-05   -0.46092E-06  4128   0.346E-03    0.910E-02
DAV:  10    -0.132956175439E+04   -0.62513E-05   -0.26720E-05  6528   0.822E-03    0.522E-02
DAV:  11    -0.132956175874E+04   -0.43497E-05   -0.25163E-05  6752   0.793E-03    0.201E-02
DAV:  12    -0.132956175975E+04   -0.10141E-05   -0.24231E-06  3264   0.249E-03    0.127E-02
DAV:  13    -0.132956175999E+04   -0.24360E-06   -0.14934E-06  3136   0.177E-03
   1 F= -.13485304E+04 E0= -.13485304E+04  d E =-.198463E-21  mag=    -0.0000
