 vasp.5.4.4.18Apr17-6-g9f103f2a35 (build Oct 18 2017 12:32:39) complex          
  
 executed on             LinuxIFC date 2021.10.31  17:06:37
 running on   48 total cores
 distrk:  each k-point on   48 cores,    1 groups
 distr:  one band on NCORES_PER_BAND=   6 cores,    8 groups


--------------------------------------------------------------------------------------------------------


 INCAR:
 POTCAR:    PAW_PBE Zr_sv 04Jan2005               
 POTCAR:    PAW_PBE O 08Apr2002                   
 POTCAR:    PAW_PBE H 15Jun2001                   
 POTCAR:    PAW_PBE C 08Apr2002                   
 POTCAR:    PAW_PBE Zr_sv 04Jan2005               
   VRHFIN =Zr: 4s4p5s4d                                                         
   LEXCH  = PE                                                                  
   EATOM  =  1284.2219 eV,   94.3876 Ry                                         
                                                                                
   TITEL  = PAW_PBE Zr_sv 04Jan2005                                             
   LULTRA =        F    use ultrasoft PP ?                                      
   IUNSCR =        1    unscreen: 0-lin 1-nonlin 2-no                           
   RPACOR =    2.200    partial core radius                                     
   POMASS =   91.224; ZVAL   =   12.000    mass and valenz                      
   RCORE  =    2.500    outmost cutoff radius                                   
   RWIGS  =    3.070; RWIGS  =    1.625    wigner-seitz radius (au A)           
   ENMAX  =  229.898; ENMIN  =  172.424 eV                                      
   ICORE  =        3    local potential                                         
   LCOR   =        T    correct aug charges                                     
   LPAW   =        T    paw PP                                                  
   EAUG   =  461.257                                                            
   DEXC   =    0.000                                                            
   RMAX   =    2.561    core radius for proj-oper                               
   RAUG   =    1.300    factor for augmentation sphere                          
   RDEP   =    2.597    radius for radial grids                                 
   RDEPT  =    2.007    core radius for aug-charge                              
                                                                                
   Atomic configuration                                                         
   11 entries                                                                   
     n  l   j            E        occ.                                          
     1  0  0.50    -17820.0161   2.0000                                         
     2  0  0.50     -2467.0882   2.0000                                         
     2  1  1.50     -2199.6095   6.0000                                         
     3  0  0.50      -402.4863   2.0000                                         
     3  1  1.50      -315.3675   6.0000                                         
     3  2  2.50      -172.4472  10.0000                                         
     4  0  0.50       -52.4146   2.0000                                         
     5  0  0.50        -3.8421   1.0000                                         
     4  1  1.50       -30.5054   6.0000                                         
     4  2  2.50        -2.3341   3.0000                                         
     4  3  2.50        -1.3606   0.0000                                         
   Description                                                                  
     l       E           TYP  RCUT    TYP  RCUT                                 
     0    -52.4145962     23  2.200                                             
     0     -3.8421270     23  2.500                                             
     1    -30.5053914     23  2.200                                             
     1     20.4087390     23  2.200                                             
     2     -2.3340816     23  2.500                                             
     2     -0.6120942     23  2.500                                             
     3     -4.0817478     23  2.500                                             
  local pseudopotential read in
  partial core-charges read in
  partial kinetic energy density read in
  atomic valenz-charges read in
  non local Contribution for L=           0  read in
    real space projection operators read in
  non local Contribution for L=           0  read in
    real space projection operators read in
  non local Contribution for L=           1  read in
    real space projection operators read in
  non local Contribution for L=           1  read in
    real space projection operators read in
  non local Contribution for L=           2  read in
    real space projection operators read in
  non local Contribution for L=           2  read in
    real space projection operators read in
    PAW grid and wavefunctions read in
 
   number of l-projection  operators is LMAX  =           6
   number of lm-projection operators is LMMAX =          18
 
 POTCAR:    PAW_PBE O 08Apr2002                   
   VRHFIN =O: s2p4                                                              
   LEXCH  = PE                                                                  
   EATOM  =   432.3788 eV,   31.7789 Ry                                         
                                                                                
   TITEL  = PAW_PBE O 08Apr2002                                                 
   LULTRA =        F    use ultrasoft PP ?                                      
   IUNSCR =        1    unscreen: 0-lin 1-nonlin 2-no                           
   RPACOR =    1.200    partial core radius                                     
   POMASS =   16.000; ZVAL   =    6.000    mass and valenz                      
   RCORE  =    1.520    outmost cutoff radius                                   
   RWIGS  =    1.550; RWIGS  =    0.820    wigner-seitz radius (au A)           
   ENMAX  =  400.000; ENMIN  =  300.000 eV                                      
   ICORE  =        2    local potential                                         
   LCOR   =        T    correct aug charges                                     
   LPAW   =        T    paw PP                                                  
   EAUG   =  605.392                                                            
   DEXC   =    0.000                                                            
   RMAX   =    1.553    core radius for proj-oper                               
   RAUG   =    1.300    factor for augmentation sphere                          
   RDEP   =    1.550    radius for radial grids                                 
   RDEPT  =    1.329    core radius for aug-charge                              
                                                                                
   Atomic configuration                                                         
    4 entries                                                                   
     n  l   j            E        occ.                                          
     1  0  0.50      -514.6923   2.0000                                         
     2  0  0.50       -23.9615   2.0000                                         
     2  1  0.50        -9.0305   4.0000                                         
     3  2  1.50        -9.5241   0.0000                                         
   Description                                                                  
     l       E           TYP  RCUT    TYP  RCUT                                 
     0    -23.9615318     23  1.200                                             
     0     -9.5240782     23  1.200                                             
     1     -9.0304911     23  1.520                                             
     1      8.1634956     23  1.520                                             
     2     -9.5240782      7  1.500                                             
  local pseudopotential read in
  partial core-charges read in
  partial kinetic energy density read in
  kinetic energy density of atom read in
  atomic valenz-charges read in
  non local Contribution for L=           0  read in
    real space projection operators read in
  non local Contribution for L=           0  read in
    real space projection operators read in
  non local Contribution for L=           1  read in
    real space projection operators read in
  non local Contribution for L=           1  read in
    real space projection operators read in
    PAW grid and wavefunctions read in
 
   number of l-projection  operators is LMAX  =           4
   number of lm-projection operators is LMMAX =           8
 
 POTCAR:    PAW_PBE H 15Jun2001                   
   VRHFIN =H: ultrasoft test                                                    
   LEXCH  = PE                                                                  
   EATOM  =    12.4884 eV,    0.9179 Ry                                         
                                                                                
   TITEL  = PAW_PBE H 15Jun2001                                                 
   LULTRA =        F    use ultrasoft PP ?                                      
   IUNSCR =        0    unscreen: 0-lin 1-nonlin 2-no                           
   RPACOR =    0.000    partial core radius                                     
   POMASS =    1.000; ZVAL   =    1.000    mass and valenz                      
   RCORE  =    1.100    outmost cutoff radius                                   
   RWIGS  =    0.700; RWIGS  =    0.370    wigner-seitz radius (au A)           
   ENMAX  =  250.000; ENMIN  =  200.000 eV                                      
   RCLOC  =    0.701    cutoff for local pot                                    
   LCOR   =        T    correct aug charges                                     
   LPAW   =        T    paw PP                                                  
   EAUG   =  400.000                                                            
   RMAX   =    1.123    core radius for proj-oper                               
   RAUG   =    1.200    factor for augmentation sphere                          
   RDEP   =    1.112    radius for radial grids                                 
   RDEPT  =    0.926    core radius for aug-charge                              
                                                                                
   Atomic configuration                                                         
    2 entries                                                                   
     n  l   j            E        occ.                                          
     1  0  0.50        -6.4927   1.0000                                         
     2  1  0.50        -3.4015   0.0000                                         
   Description                                                                  
     l       E           TYP  RCUT    TYP  RCUT                                 
     0     -6.4927494     23  1.100                                             
     0      6.8029130     23  1.100                                             
     1     -4.0817478     23  1.100                                             
  local pseudopotential read in
  atomic valenz-charges read in
  non local Contribution for L=           0  read in
    real space projection operators read in
  non local Contribution for L=           0  read in
    real space projection operators read in
  non local Contribution for L=           1  read in
    real space projection operators read in
    PAW grid and wavefunctions read in
 
   number of l-projection  operators is LMAX  =           3
   number of lm-projection operators is LMMAX =           5
 
 POTCAR:    PAW_PBE C 08Apr2002                   
   VRHFIN =C: s2p2                                                              
   LEXCH  = PE                                                                  
   EATOM  =   147.1560 eV,   10.8157 Ry                                         
                                                                                
   TITEL  = PAW_PBE C 08Apr2002                                                 
   LULTRA =        F    use ultrasoft PP ?                                      
   IUNSCR =        1    unscreen: 0-lin 1-nonlin 2-no                           
   RPACOR =    1.200    partial core radius                                     
   POMASS =   12.011; ZVAL   =    4.000    mass and valenz                      
   RCORE  =    1.500    outmost cutoff radius                                   
   RWIGS  =    1.630; RWIGS  =    0.863    wigner-seitz radius (au A)           
   ENMAX  =  400.000; ENMIN  =  300.000 eV                                      
   ICORE  =        2    local potential                                         
   LCOR   =        T    correct aug charges                                     
   LPAW   =        T    paw PP                                                  
   EAUG   =  644.873                                                            
   DEXC   =    0.000                                                            
   RMAX   =    1.529    core radius for proj-oper                               
   RAUG   =    1.300    factor for augmentation sphere                          
   RDEP   =    1.501    radius for radial grids                                 
   RDEPT  =    1.300    core radius for aug-charge                              
                                                                                
   Atomic configuration                                                         
    4 entries                                                                   
     n  l   j            E        occ.                                          
     1  0  0.50      -273.3789   2.0000                                         
     2  0  0.50       -13.7508   2.0000                                         
     2  1  0.50        -5.2854   2.0000                                         
     3  2  1.50        -5.4423   0.0000                                         
   Description                                                                  
     l       E           TYP  RCUT    TYP  RCUT                                 
     0    -13.7508458     23  1.200                                             
     0     -8.2022199     23  1.200                                             
     1     -5.2854383     23  1.500                                             
     1     34.0145650     23  1.500                                             
     2     -5.4423304      7  1.500                                             
  local pseudopotential read in
  partial core-charges read in
  partial kinetic energy density read in
  atomic valenz-charges read in
  non local Contribution for L=           0  read in
    real space projection operators read in
  non local Contribution for L=           0  read in
    real space projection operators read in
  non local Contribution for L=           1  read in
    real space projection operators read in
  non local Contribution for L=           1  read in
    real space projection operators read in
    PAW grid and wavefunctions read in
 
   number of l-projection  operators is LMAX  =           4
   number of lm-projection operators is LMMAX =           8
 
 Optimization of the real space projectors (new method)

 maximal supplied QI-value         = 15.12
 optimisation between [QCUT,QGAM] = [ 11.34, 22.83] = [ 36.00,145.93] Ry 
 Optimized for a Real-space Cutoff    1.47 Angstroem

   l    n(q)    QCUT    max X(q) W(low)/X(q) W(high)/X(q)  e(spline) 
   0     10    11.338    12.107    0.38E-04    0.13E-04    0.27E-07
   0     10    11.338     9.948    0.69E-04    0.30E-04    0.38E-07
   1     10    11.338     3.563    0.26E-04    0.18E-04    0.40E-07
   1     10    11.338     4.524    0.25E-03    0.39E-04    0.44E-06
   2      9    11.338    87.261    0.26E-03    0.91E-05    0.26E-06
   2      9    11.338    70.950    0.25E-03    0.91E-05    0.25E-06
 Optimization of the real space projectors (new method)

 maximal supplied QI-value         = 24.76
 optimisation between [QCUT,QGAM] = [ 11.39, 22.77] = [ 36.31,145.25] Ry 
 Optimized for a Real-space Cutoff    1.00 Angstroem

   l    n(q)    QCUT    max X(q) W(low)/X(q) W(high)/X(q)  e(spline) 
   0      7    11.387    20.381    0.39E-03    0.13E-02    0.15E-06
   0      7    11.387    15.268    0.42E-03    0.14E-02    0.17E-06
   1      6    11.387     5.964    0.41E-03    0.11E-02    0.17E-06
   1      6    11.387     5.382    0.39E-03    0.87E-03    0.15E-06
 Optimization of the real space projectors (new method)

 maximal supplied QI-value         = 34.20
 optimisation between [QCUT,QGAM] = [ 11.29, 22.57] = [ 35.68,142.71] Ry 
 Optimized for a Real-space Cutoff    1.16 Angstroem

   l    n(q)    QCUT    max X(q) W(low)/X(q) W(high)/X(q)  e(spline) 
   0      8    11.287    19.460    0.40E-03    0.73E-03    0.16E-06
   0      8    11.287    12.209    0.38E-03    0.70E-03    0.15E-06
   1      7    11.287     4.655    0.22E-03    0.25E-04    0.22E-06
 Optimization of the real space projectors (new method)

 maximal supplied QI-value         = 25.13
 optimisation between [QCUT,QGAM] = [ 11.31, 22.87] = [ 35.82,146.48] Ry 
 Optimized for a Real-space Cutoff    1.00 Angstroem

   l    n(q)    QCUT    max X(q) W(low)/X(q) W(high)/X(q)  e(spline) 
   0      7    11.310   115.676    0.43E-03    0.13E-02    0.19E-06
   0      7    11.310    87.132    0.43E-03    0.13E-02    0.18E-06
   1      6    11.310     4.429    0.42E-03    0.74E-03    0.11E-06
   1      6    11.310     2.733    0.34E-03    0.55E-03    0.92E-07
  PAW_PBE Zr_sv 04Jan2005               :
 energy of atom  1       EATOM=-1284.2219
 kinetic energy error for atom=    0.0049 (will be added to EATOM!!)
  PAW_PBE O 08Apr2002                   :
 energy of atom  2       EATOM= -432.3788
 kinetic energy error for atom=    0.0224 (will be added to EATOM!!)
  PAW_PBE H 15Jun2001                   :
 energy of atom  3       EATOM=  -12.4884
 kinetic energy error for atom=    0.0020 (will be added to EATOM!!)
  PAW_PBE C 08Apr2002                   :
 energy of atom  4       EATOM= -147.1560
 kinetic energy error for atom=    0.0076 (will be added to EATOM!!)
 
 
 POSCAR: Zr   O    H    C                        
  positions in direct lattice
  velocities in cartesian coordinates
  No initial velocities read in
 exchange correlation table for  LEXCH =        8
   RHO(1)=    0.500       N(1)  =     2000
   RHO(2)=  100.500       N(2)  =     4000

 VTST: version 3.1, (03/28/14)

 CHAIN: initializing optimizer
 
 OPT: Using Conjugate-Gradient optimizer
 OPT: CG, Init
 OPT: CG, FDSTEP      0.005000
 OPT: CG, MAXMOVE      0.200000
 
 CHAIN: Read ICHAIN            2
 
 POSCAR: Zr   O    H    C                        
  positions in direct lattice
  velocities in cartesian coordinates
  No initial velocities read in
 CHAIN: Running the Dimer method

 Dimer: -----------------
 Dimer: Input Parameters
 Dimer:   Seed      0
 Dimer: RotMax      4
 Dimer:     dR      0.005000
 Dimer:  FNMax      1.000000
 Dimer:  FNMin      0.010000
 Dimer: -----------------
 


--------------------------------------------------------------------------------------------------------


 ion  position               nearest neighbor table
   1  0.088  0.321  0.038-  78 2.10  62 2.10  50 2.18  74 2.19  61 2.26  54 2.30  16 3.37   6 3.50
                            12 3.52  13 3.65
   2  0.338  0.821  0.038-  79 2.10  63 2.10  51 2.18  75 2.19  58 2.26  55 2.30  13 3.37   7 3.50
                             9 3.52  14 3.65
   3  0.588  0.321  0.038-  80 2.10  64 2.10  52 2.18  76 2.19  59 2.26  56 2.30  14 3.37   8 3.50
                            10 3.52  15 3.65
   4  0.838  0.821  0.038-  81 2.10  65 2.10  53 2.18  77 2.19  60 2.26  57 2.30  15 3.37   5 3.50
                            11 3.52  16 3.65
   5  0.070  0.834  0.049-  82 2.06  66 2.10  65 2.18  58 2.19  57 2.22  70 2.30  12 3.37  17 3.47
                             4 3.50  16 3.52   9 3.65
   6  0.320  0.334  0.049-  83 2.06  67 2.10  62 2.18  59 2.19  54 2.22  71 2.30   9 3.37  18 3.48
                             1 3.50  13 3.52  10 3.65
   7  0.570  0.834  0.049-  84 2.06  68 2.10  63 2.18  60 2.19  55 2.22  72 2.30  10 3.37  19 3.49
                             2 3.50  14 3.52  11 3.65
   8  0.820  0.334  0.049-  85 2.08  69 2.10  64 2.18  61 2.19  56 2.22  73 2.30  11 3.37   3 3.50
                            20 3.51  15 3.52  12 3.65
   9  0.238  0.068  0.057-  62 2.10  86 2.16  67 2.18  70 2.19  75 2.22  58 2.30   6 3.37  17 3.48
                            14 3.50  22 3.52   2 3.52   5 3.65
  10  0.488  0.568  0.057-  63 2.10  87 2.17  68 2.18  71 2.19  76 2.22  59 2.30   7 3.37  18 3.48
                            15 3.50   3 3.52  23 3.52   6 3.65
  11  0.738  0.068  0.057-  64 2.10  69 2.18  88 2.18  72 2.19  77 2.22  60 2.30   8 3.37  19 3.47
                            16 3.50   4 3.52  24 3.52   7 3.65
  12  0.988  0.568  0.057-  65 2.10  66 2.18  89 2.18  73 2.19  74 2.22  61 2.30   5 3.37  13 3.50
                             1 3.52  21 3.53  20 3.53   8 3.65
  13  0.220  0.581  0.068-  51 2.10  66 2.10  79 2.18  54 2.19  90 2.26  71 2.26  74 2.30   2 3.37
                            21 3.49  26 3.50  12 3.50  18 3.50   6 3.52   1 3.65
  14  0.470  0.081  0.068-  52 2.10  67 2.10  80 2.18  55 2.19  72 2.26  91 2.27  75 2.30   3 3.37
                            27 3.48  22 3.49   9 3.50  19 3.51   7 3.52   2 3.65
  15  0.720  0.581  0.068-  53 2.10  68 2.10  81 2.18  56 2.19  73 2.26  92 2.26  76 2.30   4 3.37
                            23 3.49  28 3.50  10 3.50   8 3.52  20 3.54   3 3.65
  16  0.970  0.081  0.068-  50 2.10  69 2.10  78 2.18  57 2.19  70 2.26  93 2.26  77 2.30   1 3.37
                            24 3.49  17 3.50  11 3.50  25 3.50   5 3.52   4 3.65
  17  0.106  0.983  0.171-  94 2.09 110 2.12  82 2.17  70 2.18 106 2.20  93 2.23  86 2.30  32 3.39
                             5 3.47   9 3.48  16 3.50  22 3.52  25 3.54  29 3.66
  18  0.356  0.484  0.171-  95 2.09 111 2.13  83 2.16  71 2.19 107 2.19  90 2.22  87 2.29  29 3.37
                             6 3.48  10 3.48  13 3.50  23 3.52  26 3.53  30 3.65
  19  0.608  0.984  0.171-  96 2.09 112 2.15  84 2.18  72 2.19 108 2.20  91 2.23  88 2.28  30 3.39
                            11 3.47   7 3.49  24 3.50  14 3.51  27 3.52  31 3.70
  20  0.855  0.482  0.173-  97 2.10 113 2.12  85 2.17 109 2.20  92 2.23  73 2.24  89 2.33  31 3.31
                             8 3.51  28 3.51  12 3.53  21 3.54  15 3.54  32 3.66
  21  0.089  0.495  0.183- 114 2.09  98 2.11  97 2.17  90 2.18  74 2.24  89 2.27 102 2.28  25 3.37
                            13 3.49  32 3.51  12 3.53  20 3.54  26 3.63  33 3.64
  22  0.339  0.995  0.182- 115 2.10  99 2.11  94 2.17  91 2.19  75 2.24 103 2.26  86 2.28  26 3.38
                            14 3.49  29 3.51  17 3.52   9 3.52  34 3.61  27 3.63
  23  0.589  0.493  0.182- 100 2.08 116 2.11  95 2.17  92 2.18  76 2.22  87 2.29 104 2.31  27 3.36
                            15 3.49  10 3.52  35 3.52  18 3.52  30 3.56  28 3.68
  24  0.839  0.996  0.183- 117 2.10 101 2.11  93 2.18  96 2.18  77 2.25  88 2.27 105 2.28  28 3.37
                            16 3.49  19 3.50  11 3.52  31 3.54  36 3.63  25 3.64
  25  0.005  0.231  0.191-  78 2.10  97 2.10 121 2.18  98 2.19 105 2.20 106 2.29  93 2.30  21 3.37
                            37 3.45  16 3.50  17 3.54  29 3.55  24 3.64  36 3.65
  26  0.254  0.730  0.191-  79 2.10  94 2.10 102 2.18  99 2.19 118 2.20 107 2.29  90 2.29  22 3.38
                            38 3.46  13 3.50  18 3.53  30 3.54  21 3.63  33 3.65
  27  0.504  0.229  0.191-  80 2.09  95 2.11 100 2.18 119 2.19 103 2.19  91 2.29 108 2.30  23 3.36
                            39 3.46  14 3.48  19 3.52  31 3.59  22 3.63  34 3.65
  28  0.757  0.730  0.191-  81 2.08  96 2.11 101 2.17 120 2.22 104 2.22 109 2.25  92 2.30  24 3.37
                            15 3.50  32 3.51  20 3.51  35 3.51  40 3.52  23 3.68
  29  0.240  0.242  0.201-  83 2.10  98 2.10 122 2.20 103 2.21 111 2.21  86 2.23 106 2.28  18 3.37
                            37 3.41  42 3.50  22 3.51  25 3.55  34 3.64  17 3.66
  30  0.489  0.743  0.200-  99 2.08  84 2.09 112 2.19 123 2.20  87 2.22 104 2.25 107 2.29  19 3.39
                            38 3.44  43 3.49  35 3.52  26 3.54  23 3.56  18 3.65
  31  0.741  0.246  0.204-  85 2.11 100 2.12 113 2.13 105 2.21 124 2.24  88 2.30 108 2.31  20 3.31
                            39 3.43  24 3.54  44 3.58  27 3.59  36 3.63  19 3.70
  32  0.989  0.741  0.202- 101 2.12  82 2.12 110 2.19 125 2.20 102 2.21  89 2.22 109 2.28  17 3.39
                            40 3.47  41 3.47  21 3.51  28 3.51  33 3.65  20 3.66
  33  0.123  0.641  0.314- 142 2.02 126 2.16 138 2.17 114 2.21 125 2.24 118 2.37 102 2.43  45 3.23
                            41 3.48  38 3.54  21 3.64  32 3.65  26 3.65  46 3.72
  34  0.372  0.140  0.313- 143 2.03 127 2.14 139 2.19 115 2.20 122 2.24 119 2.35 103 2.43  46 3.23
                            42 3.48  39 3.53  22 3.61  29 3.64  27 3.65  47 3.68
  35  0.623  0.646  0.306- 140 2.15 128 2.17 144 2.19 116 2.19 123 2.20 104 2.22 120 2.27  49 3.30
                            47 3.38  43 3.43  28 3.51  30 3.52  23 3.52  40 3.57  48 3.71
  36  0.875  0.140  0.314- 145 2.04 129 2.13 141 2.14 117 2.22 124 2.27 105 2.39 121 2.41  48 3.23
                            44 3.44  37 3.54  31 3.63  24 3.63  25 3.65  45 3.73
  37  0.110  0.162  0.312- 130 2.10 121 2.14 106 2.16 129 2.16 122 2.16 134 2.17  29 3.41  41 3.45
                            25 3.45  45 3.52  36 3.54  42 3.58
  38  0.359  0.660  0.313- 131 2.10 126 2.16 107 2.16 118 2.16 135 2.16 123 2.17  30 3.44  42 3.44
                            26 3.46  46 3.53  33 3.54  43 3.58
  39  0.607  0.157  0.313- 136 2.10 132 2.11 108 2.14 127 2.16 124 2.18 119 2.20  31 3.43  43 3.44
                            27 3.46  47 3.48  34 3.53  44 3.65
  40  0.860  0.662  0.317- 133 2.11 125 2.17 120 2.19 146 2.23 137 2.23 109 2.24 128 2.25  32 3.47
                            48 3.50  28 3.52  44 3.54  35 3.57  41 3.60  49 3.66
  41  0.028  0.890  0.324- 110 2.05 138 2.14 129 2.15 137 2.16 130 2.20 125 2.31  37 3.45  32 3.47
                            33 3.48  46 3.50  40 3.60
  42  0.276  0.388  0.325- 111 2.06 139 2.13 126 2.15 131 2.24 134 2.27 122 2.29  38 3.44  34 3.48
                            29 3.50  47 3.51  37 3.58
  43  0.525  0.887  0.325- 112 2.06 127 2.14 140 2.15 132 2.18 135 2.27 123 2.29  35 3.43  39 3.44
                            30 3.49  48 3.55  38 3.58
  44  0.779  0.383  0.335- 147 2.10 141 2.12 133 2.18 113 2.25 128 2.26 124 2.28 136 2.49  49 3.29
                            36 3.44  45 3.48  40 3.54  31 3.58  39 3.65
  45  0.010  0.408  0.336- 142 2.03 114 2.07 133 2.16 141 2.24 121 2.30 134 2.30  33 3.23  44 3.48
                            37 3.52  36 3.73
  46  0.260  0.907  0.336- 143 2.02 115 2.07 130 2.15 138 2.28 118 2.30 135 2.31  34 3.23  41 3.50
                            38 3.53  33 3.72
  47  0.509  0.402  0.334- 116 2.07 136 2.15 144 2.16 131 2.17 119 2.25 139 2.26  35 3.38  39 3.48
                            42 3.51  34 3.68
  48  0.760  0.908  0.336- 145 2.01 117 2.05 132 2.17 137 2.26 120 2.31 140 2.36  36 3.23  40 3.50
                            43 3.55  35 3.71
  49  0.702  0.556  0.424- 147 1.93 154 1.95 146 2.16 144 2.18 128 2.31 157 2.61 158 2.75  44 3.29
                            35 3.30  40 3.66
  50  0.024  0.173  0.000-  16 2.10   1 2.18
  51  0.274  0.673  0.000-  13 2.10   2 2.18
  52  0.524  0.173  0.000-  14 2.10   3 2.18
  53  0.774  0.673  0.000-  15 2.10   4 2.18
  54  0.215  0.432  0.016-  13 2.19   6 2.22   1 2.30
  55  0.465  0.932  0.016-  14 2.19   7 2.22   2 2.30
  56  0.715  0.432  0.016-  15 2.19   8 2.22   3 2.30
  57  0.965  0.932  0.016-  16 2.19   5 2.22   4 2.30
  58  0.207  0.891  0.025-   5 2.19   2 2.26   9 2.30
  59  0.457  0.391  0.025-   6 2.19   3 2.26  10 2.30
  60  0.707  0.891  0.025-   7 2.19   4 2.26  11 2.30
  61  0.957  0.391  0.025-   8 2.19   1 2.26  12 2.30
  62  0.197  0.226  0.044-   9 2.10   1 2.10   6 2.18
  63  0.447  0.726  0.044-  10 2.10   2 2.10   7 2.18
  64  0.697  0.226  0.044-  11 2.10   3 2.10   8 2.18
  65  0.947  0.726  0.044-  12 2.10   4 2.10   5 2.18
  66  0.111  0.675  0.062-   5 2.10  13 2.10  12 2.18
  67  0.361  0.175  0.062-   6 2.10  14 2.10   9 2.18
  68  0.611  0.675  0.062-   7 2.10  15 2.10  10 2.18
  69  0.861  0.175  0.062-   8 2.10  16 2.10  11 2.18
  70  0.101  0.010  0.081-  17 2.18   9 2.19  16 2.26   5 2.30
  71  0.351  0.510  0.081-  18 2.19  10 2.19  13 2.26   6 2.30
  72  0.601  0.010  0.081-  19 2.19  11 2.19  14 2.26   7 2.30
  73  0.851  0.510  0.081-  12 2.19  20 2.24  15 2.26   8 2.30
  74  0.093  0.470  0.090-   1 2.19  12 2.22  21 2.24  13 2.30
  75  0.343  0.970  0.090-   2 2.19   9 2.22  22 2.24  14 2.30
  76  0.593  0.470  0.090-   3 2.19  10 2.22  23 2.22  15 2.30
  77  0.843  0.970  0.090-   4 2.19  11 2.22  24 2.25  16 2.30
  78  0.034  0.229  0.106-   1 2.10  25 2.10  16 2.18
  79  0.284  0.729  0.106-   2 2.10  26 2.10  13 2.18
  80  0.534  0.229  0.106-  27 2.09   3 2.10  14 2.18
  81  0.784  0.729  0.106-  28 2.08   4 2.10  15 2.18
  82  0.046  0.833  0.133-   5 2.06  32 2.12  17 2.17
  83  0.297  0.334  0.134-   6 2.06  29 2.10  18 2.16
  84  0.547  0.834  0.133-   7 2.06  30 2.09  19 2.18
  85  0.796  0.333  0.134-   8 2.08  31 2.11  20 2.17
  86  0.232  0.093  0.146-   9 2.16  29 2.23  22 2.28  17 2.30
  87  0.482  0.593  0.147-  10 2.17  30 2.22  23 2.29  18 2.29
  88  0.732  0.094  0.147-  11 2.18  24 2.27  19 2.28  31 2.30
  89  0.982  0.593  0.147-  12 2.18  32 2.22  21 2.27  20 2.33
  90  0.226  0.552  0.160-  21 2.18  18 2.22  13 2.26  26 2.29
  91  0.476  0.051  0.161-  22 2.19  19 2.23  14 2.27  27 2.29
  92  0.725  0.552  0.160-  23 2.18  20 2.23  15 2.26  28 2.30
  93  0.976  0.052  0.161-  24 2.18  17 2.23  16 2.26  25 2.30
  94  0.215  0.890  0.181-  17 2.09  26 2.10  22 2.17
  95  0.465  0.390  0.181-  18 2.09  27 2.11  23 2.17
  96  0.715  0.890  0.181-  19 2.09  28 2.11  24 2.18
  97  0.965  0.391  0.182-  20 2.10  25 2.10  21 2.17
  98  0.130  0.335  0.192-  29 2.10  21 2.11  25 2.19
  99  0.379  0.835  0.193-  30 2.08  22 2.11  26 2.19
 100  0.629  0.335  0.193-  23 2.08  31 2.12  27 2.18
 101  0.880  0.836  0.194-  24 2.11  32 2.12  28 2.17
 102  0.118  0.671  0.214-  26 2.18  32 2.21  21 2.28  33 2.43
 103  0.367  0.170  0.213-  27 2.19  29 2.21  22 2.26  34 2.43
 104  0.619  0.671  0.214-  28 2.22  35 2.22  30 2.25  23 2.31
 105  0.868  0.171  0.216-  25 2.20  31 2.21  24 2.28  36 2.39
 106  0.116  0.131  0.224-  37 2.16  17 2.20  29 2.28  25 2.29
 107  0.364  0.631  0.224-  38 2.16  18 2.19  26 2.29  30 2.29
 108  0.615  0.131  0.225-  39 2.14  19 2.20  27 2.30  31 2.31
 109  0.864  0.632  0.225-  20 2.20  40 2.24  28 2.25  32 2.28
 110  0.048  0.894  0.239-  41 2.05  17 2.12  32 2.19
 111  0.297  0.396  0.241-  42 2.06  18 2.13  29 2.21
 112  0.547  0.893  0.240-  43 2.06  19 2.15  30 2.19
 113  0.795  0.395  0.242-  20 2.12  31 2.13  44 2.25
 114  0.069  0.493  0.269-  45 2.07  21 2.09  33 2.21
 115  0.316  0.992  0.268-  46 2.07  22 2.10  34 2.20
 116  0.563  0.493  0.268-  47 2.07  23 2.11  35 2.19
 117  0.813  0.994  0.268-  48 2.05  24 2.10  36 2.22
 118  0.252  0.750  0.283-  38 2.16  26 2.20  46 2.30  33 2.37
 119  0.498  0.249  0.281-  27 2.19  39 2.20  47 2.25  34 2.35
 120  0.751  0.749  0.283-  40 2.19  28 2.22  35 2.27  48 2.31
 121  0.004  0.251  0.282-  37 2.14  25 2.18  45 2.30  36 2.41
 122  0.246  0.214  0.291-  37 2.16  29 2.20  34 2.24  42 2.29
 123  0.495  0.712  0.291-  38 2.17  35 2.20  30 2.20  43 2.29
 124  0.745  0.214  0.296-  39 2.18  31 2.24  36 2.27  44 2.28
 125  0.996  0.712  0.292-  40 2.17  32 2.20  33 2.24  41 2.31
 126  0.240  0.554  0.330-  42 2.15  38 2.16  33 2.16
 127  0.487  0.052  0.327-  34 2.14  43 2.14  39 2.16
 128  0.733  0.554  0.330-  35 2.17  40 2.25  44 2.26  49 2.31
 129  0.990  0.056  0.328-  36 2.13  41 2.15  37 2.16
 130  0.148  0.004  0.330-  37 2.10  46 2.15  41 2.20
 131  0.399  0.505  0.334-  38 2.10  47 2.17  42 2.24
 132  0.644  1.000  0.334-  39 2.11  48 2.17  43 2.18
 133  0.896  0.501  0.329-  40 2.11  45 2.16  44 2.18
 134  0.138  0.321  0.351-  37 2.17  42 2.27  45 2.30
 135  0.386  0.819  0.351-  38 2.16  43 2.27  46 2.31
 136  0.622  0.312  0.352-  39 2.10  47 2.15  44 2.49
 137  0.892  0.835  0.345-  41 2.16  40 2.23  48 2.26
 138  0.132  0.800  0.356-  41 2.14  33 2.17  46 2.28
 139  0.382  0.299  0.356-  42 2.13  34 2.19  47 2.26
 140  0.629  0.794  0.355-  43 2.15  35 2.15  48 2.36
 141  0.889  0.295  0.356-  44 2.12  36 2.14  45 2.24
 142  0.065  0.545  0.375-  33 2.02  45 2.03
 143  0.317  0.043  0.375-  46 2.02  34 2.03
 144  0.579  0.541  0.376-  47 2.16  49 2.18  35 2.19
 145  0.817  0.042  0.375-  48 2.01  36 2.04
 146  0.809  0.679  0.403- 150 0.97  49 2.16  40 2.23
 147  0.754  0.417  0.419-  49 1.93  44 2.10
 148  0.781  0.529  0.541- 157 1.09
 149  0.702  0.833  0.545- 156 1.10
 150  0.844  0.734  0.425- 146 0.97
 151  0.631  0.793  0.488- 156 1.10
 152  0.749  0.808  0.479- 156 1.10
 153  0.648  0.630  0.555- 158 1.09
 154  0.612  0.591  0.478-  49 1.95
 155  0.837  0.648  0.503- 157 1.09
 156  0.695  0.780  0.508- 151 1.10 152 1.10 149 1.10 158 1.51
 157  0.776  0.607  0.520- 155 1.09 148 1.09 158 1.38  49 2.61
 158  0.700  0.661  0.525- 153 1.09 157 1.38 156 1.51  49 2.75
 
  Warning from LATTYP: Monoclinic adjustement (A1->A3, A2->A1, A3->A2)!
  Warning from LATTYP: Got some problem with cell dimensions!
  Tried to take original basis but could not verify dimensions!
  LATTYP: Found a simple monoclinic cell.
 ALAT       =    18.5584556648
 B/A-ratio  =     1.2917238965
 C/A-ratio  =     1.7011970181
 COS(beta)  =    -0.9496615564
  
  Lattice vectors:
  
 A1 = ( -14.0305058395, -12.1474763861,   0.0000000000)
 A2 = (   0.0000000000,   0.0000000000, -23.9724006653)
 A3 = (  29.1411063110,  12.1474763861,   0.0000000000)


Analysis of symmetry for initial positions (statically):
=====================================================================
 Subroutine PRICEL returns:
 Original cell was already a primitive cell.
 

 Routine SETGRP: Setting up the symmetry group for a 
 simple monoclinic supercell.


 Subroutine GETGRP returns: Found  1 space group operations
 (whereof  1 operations were pure point group operations)
 out of a pool of  4 trial point group operations.


The static configuration has the point symmetry C_1 .


Analysis of symmetry for dynamics (positions and initial velocities):
=====================================================================
 Subroutine PRICEL returns:
 Original cell was already a primitive cell.
 

 Routine SETGRP: Setting up the symmetry group for a 
 simple monoclinic supercell.


 Subroutine GETGRP returns: Found  1 space group operations
 (whereof  1 operations were pure point group operations)
 out of a pool of  4 trial point group operations.


The dynamic configuration has the point symmetry C_1 .


Analysis of constrained symmetry for selective dynamics:
=====================================================================
 Subroutine PRICEL returns:
 Original cell was already a primitive cell.
 

 Routine SETGRP: Setting up the symmetry group for a 
 simple monoclinic supercell.


 Subroutine GETGRP returns: Found  1 space group operations
 (whereof  1 operations were pure point group operations)
 out of a pool of  4 trial point group operations.


The constrained configuration has the point symmetry C_1 .


Analysis of structural, dynamic, and magnetic symmetry:
=====================================================================
 Subroutine PRICEL returns:
 Original cell was already a primitive cell.
 

 Routine SETGRP: Setting up the symmetry group for a 
 simple monoclinic supercell.


 Subroutine GETGRP returns: Found  1 space group operations
 (whereof  1 operations were pure point group operations)
 out of a pool of  4 trial point group operations.


The magnetic configuration has the point symmetry C_1 .


 Subroutine INISYM returns: Found  1 space group operations
 (whereof  1 operations are pure point group operations),
 and found     1 'primitive' translations

 
 
 KPOINTS: Monkhorst Pack                          

Automatic generation of k-mesh.
Space group operators:
 irot       det(A)        alpha          n_x          n_y          n_z        tau_x        tau_y        tau_z
    1     1.000000     0.000001     1.000000     0.000000     0.000000     0.000000     0.000000     0.000000
 
 Subroutine IBZKPT returns following result:
 ===========================================
 
 Found      2 irreducible k-points:
 
 Following reciprocal coordinates:
            Coordinates               Weight
  0.250000  0.250000  0.000000      2.000000
 -0.250000  0.250000  0.000000      2.000000
 
 Following cartesian coordinates:
            Coordinates               Weight
  0.016545  0.022051  0.000000      2.000000
 -0.016545  0.019109  0.000000      2.000000
 


--------------------------------------------------------------------------------------------------------




 Dimension of arrays:
   k-points           NKPTS =      2   k-points in BZ     NKDIM =      2   number of bands    NBANDS=    640
   number of dos      NEDOS =    301   number of ions     NIONS =    158
   non local maximal  LDIM  =      6   non local SUM 2l+1 LMDIM =     18
   total plane-waves  NPLWV = 823200
   max r-space proj   IRMAX =   2561   max aug-charges    IRDMAX=   7978
   dimension x,y,z NGX =    84 NGY =   70 NGZ =  140
   dimension x,y,z NGXF=   168 NGYF=  140 NGZF=  280
   support grid    NGXF=   168 NGYF=  140 NGZF=  280
   ions per type =              49  98   8   3
   NGX,Y,Z   is equivalent  to a cutoff of   9.24,  9.54,  9.71 a.u.
   NGXF,Y,Z  is equivalent  to a cutoff of  18.48, 19.08, 19.42 a.u.

 SYSTEM =  mZrO2_n111_dimer                        
 POSCAR =  Zr   O    H    C                        

 Startparameter for this run:
   NWRITE =      2    write-flag & timer
   PREC   = normal    normal or accurate (medium, high low for compatibility)
   ISTART =      1    job   : 0-new  1-cont  2-samecut
   ICHARG =      1    charge: 1-file 2-atom 10-const
   ISPIN  =      2    spin polarized calculation?
   LNONCOLLINEAR =      F non collinear calculations
   LSORBIT =      F    spin-orbit coupling
   INIWAV =      1    electr: 0-lowe 1-rand  2-diag
   LASPH  =      F    aspherical Exc in radial PAW
   METAGGA=      F    non-selfconsistent MetaGGA calc.

 Electronic Relaxation 1
   ENCUT  =  500.0 eV  36.75 Ry    6.06 a.u.  27.55 22.24 43.71*2*pi/ulx,y,z
   ENINI  =  500.0     initial cutoff
   ENAUG  =  644.9 eV  augmentation charge cutoff
   NELM   =    300;   NELMIN=  2; NELMDL=  0     # of ELM steps 
   EDIFF  = 0.1E-05   stopping-criterion for ELM
   LREAL  =      T    real-space projection
   NLSPLINE    = F    spline interpolate recip. space projectors
   LCOMPAT=      F    compatible to vasp.4.4
   GGA_COMPAT  = T    GGA compatible to vasp.4.4-vasp.4.6
   LMAXPAW     = -100 max onsite density
   LMAXMIX     =    2 max onsite mixed and CHGCAR
   VOSKOWN=      0    Vosko Wilk Nusair interpolation
   ROPT   =   -0.00050  -0.00050  -0.00050  -0.00050
 Ionic relaxation
   EDIFFG = -.5E-01   stopping-criterion for IOM
   NSW    =      0    number of steps for IOM
   NBLOCK =      1;   KBLOCK =      1    inner block; outer block 
   IBRION =     -1    ionic relax: 0-MD 1-quasi-New 2-CG
   NFREE  =      0    steps in history (QN), initial steepest desc. (CG)
   ISIF   =      2    stress and relaxation
   IWAVPR =     10    prediction:  0-non 1-charg 2-wave 3-comb
   ISYM   =      2    0-nonsym 1-usesym 2-fastsym
   LCORR  =      T    Harris-Foulkes like correction to forces

   POTIM  = 0.0000    time-step for ionic-motion
   TEIN   =    0.0    initial temperature
   TEBEG  =    0.0;   TEEND  =   0.0 temperature during run
   SMASS  =  -3.00    Nose mass-parameter (am)
   estimated Nose-frequenzy (Omega)   =  0.10E-29 period in steps =  0.00 mass=  -0.522E-26a.u.
   SCALEE = 1.0000    scale energy and forces
   NPACO  =    256;   APACO  = 16.0  distance and # of slots for P.C.
   PSTRESS=    0.0 pullay stress

  Mass of Ions in am
   POMASS =  91.22 16.00  1.00 12.01
  Ionic Valenz
   ZVAL   =  12.00  6.00  1.00  4.00
  Atomic Wigner-Seitz radii
   RWIGS  =  -1.00 -1.00 -1.00 -1.00
  virtual crystal weights 
   VCA    =   1.00  1.00  1.00  1.00
   NELECT =    1196.0000    total number of electrons
   NUPDOWN=      -1.0000    fix difference up-down

 DOS related values:
   EMIN   =  10.00;   EMAX   =-10.00  energy-range for DOS
   EFERMI =   0.00
   ISMEAR =     0;   SIGMA  =   0.05  broadening in eV -4-tet -1-fermi 0-gaus

 Electronic relaxation 2 (details)
   IALGO  =     38    algorithm
   LDIAG  =      T    sub-space diagonalisation (order eigenvalues)
   LSUBROT=      F    optimize rotation matrix (better conditioning)
   TURBO    =      0    0=normal 1=particle mesh
   IRESTART =      0    0=no restart 2=restart with 2 vectors
   NREBOOT  =      0    no. of reboots
   NMIN     =      0    reboot dimension
   EREF     =   0.00    reference energy to select bands
   IMIX   =      4    mixing-type and parameters
     AMIX     =   0.40;   BMIX     =  1.00
     AMIX_MAG =   1.60;   BMIX_MAG =  1.00
     AMIN     =   0.10
     WC   =   100.;   INIMIX=   1;  MIXPRE=   1;  MAXMIX= -45

 Intra band minimization:
   WEIMIN = 0.0000     energy-eigenvalue tresh-hold
   EBREAK =  0.39E-09  absolut break condition
   DEPER  =   0.30     relativ break condition  

   TIME   =   0.40     timestep for ELM

  volume/ion in A,a.u.               =      27.85       187.94
  Fermi-wavevector in a.u.,A,eV,Ry     =   1.060455  2.003969 15.300624  1.124564
  Thomas-Fermi vector in A             =   2.195836
 
 Write flags
   LWAVE        =      T    write WAVECAR
   LDOWNSAMPLE  =      F    k-point downsampling of WAVECAR
   LCHARG       =      T    write CHGCAR
   LVTOT        =      F    write LOCPOT, total local potential
   LVHAR        =      F    write LOCPOT, Hartree potential only
   LELF         =      F    write electronic localiz. function (ELF)
   LORBIT       =      0    0 simple, 1 ext, 2 COOP (PROOUT), +10 PAW based schemes


 Dipole corrections
   LMONO  =      F    monopole corrections only (constant potential shift)
   LDIPOL =      F    correct potential (dipole corrections)
   IDIPOL =      3    1-x, 2-y, 3-z, 4-all directions 
   EPSILON=  1.0000000 bulk dielectric constant

 LDA+U is selected, type is set to LDAUTYPE =  2
   angular momentum for each species LDAUL =     2   -1   -1   -1
   U (eV)           for each species LDAUU =   4.0  0.0  0.0  0.0
   J (eV)           for each species LDAUJ =   0.0  0.0  0.0  0.0
 Exchange correlation treatment:
   GGA     =    --    GGA type
   LEXCH   =     8    internal setting for exchange type
   VOSKOWN=      0    Vosko Wilk Nusair interpolation
   LHFCALC =     F    Hartree Fock is set to
   LHFONE  =     F    Hartree Fock one center treatment
   AEXX    =    0.0000 exact exchange contribution

 Linear response parameters
   LEPSILON=     F    determine dielectric tensor
   LRPA    =     F    only Hartree local field effects (RPA)
   LNABLA  =     F    use nabla operator in PAW spheres
   LVEL    =     F    velocity operator in full k-point grid
   LINTERFAST=   F  fast interpolation
   KINTER  =     0    interpolate to denser k-point grid
   CSHIFT  =0.1000    complex shift for real part using Kramers Kronig
   OMEGAMAX=  -1.0    maximum frequency
   DEG_THRESHOLD= 0.2000000E-02 threshold for treating states as degnerate
   RTIME   =   -0.100 relaxation time in fs
  (WPLASMAI=    0.000 imaginary part of plasma frequency in eV, 0.658/RTIME)
   DFIELD  = 0.0000000 0.0000000 0.0000000 field for delta impulse in time
 
 Orbital magnetization related:
   ORBITALMAG=     F  switch on orbital magnetization
   LCHIMAG   =     F  perturbation theory with respect to B field
   DQ        =  0.001000  dq finite difference perturbation B field
   LLRAUG    =     F  two centre corrections for induced B field



--------------------------------------------------------------------------------------------------------


 Static calculation
 charge density and potential will be updated during run
 spin polarized calculation
 Variant of blocked Davidson
 Davidson routine will perform the subspace rotation
 perform sub-space diagonalisation
    after iterative eigenvector-optimisation
 modified Broyden-mixing scheme, WC =      100.0
 initial mixing is a Kerker type mixing with AMIX =  0.4000 and BMIX =      1.0000
 Hartree-type preconditioning will be used
 using additional bands           42
 real space projection scheme for non local part
 use partial core corrections
 calculate Harris-corrections to forces 
   (improved forces if not selfconsistent)
 use gradient corrections 
 use of overlap-Matrix (Vanderbilt PP)
 Gauss-broadening in eV      SIGMA  =   0.05


--------------------------------------------------------------------------------------------------------


  energy-cutoff  :      500.00
  volume of cell :     4400.27
      direct lattice vectors                 reciprocal lattice vectors
    15.110600471  0.000000000  0.000000000     0.066178707  0.005884289  0.000000000
    -1.080094632 12.147476386  0.000000000     0.000000000  0.082321625  0.000000000
     0.000000000  0.000000000 23.972400665     0.000000000  0.000000000  0.041714637

  length of vectors
    15.110600471 12.195400238 23.972400665     0.066439793  0.082321625  0.041714637


 
 old parameters found on file WAVECAR:
  energy-cutoff  :      500.00
  volume of cell :     4400.27
      direct lattice vectors                 reciprocal lattice vectors
    15.110600471  0.000000000  0.000000000     0.066178707  0.005884289  0.000000000
    -1.080094632 12.147476386  0.000000000     0.000000000  0.082321625  0.000000000
     0.000000000  0.000000000 23.972400665     0.000000000  0.000000000  0.041714637

  length of vectors

 
 k-points in units of 2pi/SCALE and weight: Monkhorst Pack                          
   0.01654468  0.02205148  0.00000000       0.500
  -0.01654468  0.01910933  0.00000000       0.500
 
 k-points in reciprocal lattice and weights: Monkhorst Pack                          
   0.25000000  0.25000000  0.00000000       0.500
  -0.25000000  0.25000000  0.00000000       0.500
 
 position of ions in fractional coordinates (direct lattice) 
   0.08848000  0.32082999  0.03824000
   0.33847998  0.82083000  0.03824000
   0.58847999  0.32082999  0.03824000
   0.83848001  0.82083000  0.03824000
   0.07020001  0.83354995  0.04873000
   0.32019998  0.33355000  0.04873000
   0.57020004  0.83354995  0.04873000
   0.82020001  0.33355000  0.04873000
   0.23783000  0.06778000  0.05703000
   0.48783004  0.56778001  0.05703000
   0.73783001  0.06778000  0.05703000
   0.98782997  0.56778001  0.05703000
   0.21954999  0.58051001  0.06752000
   0.46955000  0.08051000  0.06752000
   0.71954999  0.58051001  0.06752000
   0.96955000  0.08051000  0.06752000
   0.10636515  0.98339984  0.17084705
   0.35648954  0.48383339  0.17111738
   0.60774356  0.98445367  0.17123508
   0.85530832  0.48236336  0.17328926
   0.08947508  0.49490290  0.18255932
   0.33923596  0.99498224  0.18226470
   0.58946517  0.49274058  0.18186526
   0.83911421  0.99589665  0.18259167
   0.00477108  0.23051431  0.19142431
   0.25364705  0.72995741  0.19128473
   0.50416265  0.22915671  0.19092822
   0.75714267  0.73043586  0.19083192
   0.23992534  0.24221941  0.20082802
   0.48850979  0.74286434  0.20003101
   0.74148669  0.24568613  0.20402349
   0.98936010  0.74074527  0.20159405
   0.12348013  0.64111052  0.31411854
   0.37227744  0.14009134  0.31308391
   0.62340948  0.64626093  0.30564283
   0.87468882  0.13992462  0.31414442
   0.10996638  0.16168081  0.31245029
   0.35861752  0.65965144  0.31274904
   0.60666752  0.15749835  0.31311353
   0.85973561  0.66221626  0.31663749
   0.02791409  0.88979683  0.32389805
   0.27633426  0.38846795  0.32544059
   0.52493815  0.88654872  0.32494525
   0.77932229  0.38258149  0.33500945
   0.01025770  0.40756886  0.33580111
   0.25953926  0.90705698  0.33609535
   0.50909814  0.40187861  0.33445268
   0.76015949  0.90777587  0.33588165
   0.70206699  0.55628919  0.42383109
   0.02440000  0.17254999  0.00000000
   0.27439999  0.67255002  0.00000000
   0.52439999  0.17254999  0.00000000
   0.77439999  0.67255002  0.00000000
   0.21455000  0.43156997  0.01581000
   0.46455001  0.93156996  0.01581000
   0.71455008  0.43156997  0.01581000
   0.96455004  0.93156996  0.01581000
   0.20673000  0.89092997  0.02490000
   0.45673000  0.39092998  0.02490000
   0.70672997  0.89092997  0.02490000
   0.95673004  0.39092998  0.02490000
   0.19748000  0.22610000  0.04418000
   0.44748002  0.72610003  0.04418000
   0.69748003  0.22610000  0.04418000
   0.94747999  0.72610003  0.04418000
   0.11054000  0.67523994  0.06158000
   0.36054002  0.17523999  0.06158000
   0.61053998  0.67523994  0.06158000
   0.86053999  0.17523999  0.06158000
   0.10129000  0.01041000  0.08086000
   0.35129000  0.51041000  0.08086000
   0.60128997  0.01041000  0.08086000
   0.85128994  0.51041000  0.08086000
   0.09348000  0.46976000  0.08995000
   0.34348000  0.96975995  0.08995000
   0.59348001  0.46976000  0.08995000
   0.84347996  0.96975995  0.08995000
   0.03362000  0.22878000  0.10576000
   0.28361999  0.72877998  0.10576000
   0.53361997  0.22878000  0.10576000
   0.78362002  0.72877998  0.10576000
   0.04574542  0.83322107  0.13347806
   0.29654171  0.33385831  0.13351102
   0.54659261  0.83385838  0.13345386
   0.79625050  0.33278827  0.13415643
   0.23151208  0.09345199  0.14621665
   0.48171512  0.59347919  0.14664295
   0.73179570  0.09381940  0.14689910
   0.98171207  0.59342486  0.14686225
   0.22589543  0.55216931  0.16040815
   0.47632186  0.05117986  0.16069543
   0.72527562  0.55212645  0.16049002
   0.97555845  0.05234526  0.16071204
   0.21513927  0.89026547  0.18103510
   0.46465663  0.38961481  0.18084103
   0.71526428  0.88976600  0.18123341
   0.96533496  0.39065013  0.18215058
   0.13000114  0.33515290  0.19239678
   0.37927169  0.83507649  0.19320273
   0.62858316  0.33462413  0.19344685
   0.87993348  0.83642881  0.19367716
   0.11818236  0.67104989  0.21398994
   0.36740238  0.16965947  0.21290923
   0.61873312  0.67089088  0.21381572
   0.86826470  0.17084279  0.21572013
   0.11571808  0.13101517  0.22388044
   0.36444354  0.63112513  0.22403645
   0.61546181  0.13138109  0.22489791
   0.86414333  0.63201699  0.22463251
   0.04766456  0.89371514  0.23939918
   0.29711017  0.39592267  0.24057989
   0.54746609  0.89341835  0.24014184
   0.79540646  0.39458321  0.24172630
   0.06940800  0.49252355  0.26888472
   0.31561730  0.99241483  0.26840168
   0.56323321  0.49330860  0.26821017
   0.81251233  0.99432289  0.26846562
   0.25172822  0.75017342  0.28263164
   0.49803078  0.24937176  0.28138071
   0.75063868  0.74912966  0.28276595
   0.00445809  0.25131868  0.28165496
   0.24629604  0.21430581  0.29115947
   0.49470238  0.71220082  0.29051344
   0.74480819  0.21400077  0.29601355
   0.99571516  0.71167449  0.29214332
   0.23953224  0.55424058  0.32960625
   0.48665999  0.05163565  0.32682039
   0.73314467  0.55356630  0.32958240
   0.99031053  0.05590429  0.32840020
   0.14811491  0.00433597  0.33041716
   0.39886701  0.50452785  0.33350227
   0.64401091  0.99967667  0.33370739
   0.89588463  0.50077880  0.32876204
   0.13752212  0.32143606  0.35133144
   0.38635549  0.81918603  0.35142142
   0.62191238  0.31183682  0.35227087
   0.89209740  0.83512997  0.34523579
   0.13245467  0.79982260  0.35603063
   0.38179708  0.29926898  0.35554392
   0.62933041  0.79359186  0.35538653
   0.88946182  0.29474477  0.35638781
   0.06543402  0.54456916  0.37478821
   0.31685664  0.04289081  0.37460407
   0.57891033  0.54121813  0.37600274
   0.81659089  0.04172051  0.37506703
   0.80946078  0.67854933  0.40330601
   0.75357949  0.41736009  0.41886433
   0.78136190  0.52893233  0.54131739
   0.70244940  0.83301477  0.54500430
   0.84422179  0.73434112  0.42476894
   0.63138572  0.79302352  0.48811025
   0.74866010  0.80765025  0.47902056
   0.64841885  0.63021808  0.55493843
   0.61237309  0.59054368  0.47804445
   0.83698561  0.64797682  0.50347453
   0.69498334  0.77959067  0.50798014
   0.77552953  0.60702042  0.51999148
   0.69953064  0.66123863  0.52548497
 
 position of ions in cartesian coordinates  (Angst):
   0.99045921  3.89727473  0.91670460
   4.22806168  9.97101307  0.91670460
   8.54575920  3.89727473  0.91670460
  11.78336239  9.97101307  0.91670460
   0.16045142 10.12552833  1.16817511
   4.47814847  4.05179071  1.16817511
   7.71575212 10.12552833  1.16817511
  12.03344917  4.05179071  1.16817511
   3.52054525  0.82335597  1.36714601
   6.75814868  6.89709425  1.36714601
  11.07584571  0.82335597  1.36714601
  14.31344795  6.89709425  1.36714601
   2.69052649  7.05173159  1.61861647
   7.00822400  0.97799331  1.61861647
  10.24582672  7.05173159  1.61861647
  14.56352424  0.97799331  1.61861647
   0.54507635 11.94582633  4.09561384
   4.86418516  5.87735472  4.10209438
   8.12006702 11.95862769  4.10491589
  12.40322423  5.85949749  4.15415967
   0.81748019  6.01182135  4.37638518
   4.05138403 12.08652324  4.36932253
   8.37496625  5.98555455  4.35974697
  11.60385699 12.09763099  4.37716056
  -0.17688334  2.80016710  4.58890032
   3.04433612  8.86714041  4.58555420
   7.37068951  2.78367576  4.57700784
  10.65194050  8.87295241  4.57469927
   3.36379606  2.94235455  4.81432983
   6.57931252  9.02392702  4.79522353
  10.93894490  2.98446642  4.89093296
  14.14975015  8.99818563  4.83269326
   1.17339888  7.78787494  7.53017551
   5.47402377  1.70175627  7.50537305
   8.72206869  7.85043939  7.32699232
  13.06594154  1.69973097  7.53079581
   1.48702740  1.96401378  7.49018364
   4.70644006  8.01310027  7.49734528
   8.99699738  1.91320743  7.50608289
  12.27586512  8.04425642  7.59056077
  -0.53926616 10.80878594  7.76461375
   3.75599450  4.71890523  7.80159232
   6.97457418 10.76932960  7.78971764
  11.36280354  4.64739965  8.03098080
  -0.28521300  4.95093306  8.04995879
   2.94208663 11.01845322  8.05701247
   7.25871166  4.88181091  8.01763365
  10.50598254 11.02718590  8.05188942
  10.00780883  6.75750981 10.16024862
   0.18232835  2.09604693  0.00000000
   3.41993094  8.16978550  0.00000000
   7.73762846  2.09604693  0.00000000
  10.97523117  8.16978550  0.00000000
   2.77584291  5.24248600  0.37900365
   6.01344586 11.31622410  0.37900365
  10.33114434  5.24248600  0.37900365
  13.56874656 11.31622410  0.37900365
   2.16152573 10.82255077  0.59691280
   6.47922326  4.74881268  0.59691280
   9.71682548 10.82255077  0.59691280
  14.03452396  4.74881268  0.59691280
   2.73983193  2.74654436  1.05910064
   5.97743511  8.82028293  1.05910064
  10.29513263  2.74654436  1.05910064
  13.53273487  8.82028293  1.05910064
   0.94100273  8.20246124  1.47622036
   5.25870037  2.12872362  1.47622036
   8.49630260  8.20246124  1.47622036
  12.81400013  2.12872362  1.47622036
   1.51930892  0.12645522  1.93840825
   4.75691175  6.20019341  1.93840825
   9.07460880  0.12645522  1.93840825
  12.31221104  6.20019341  1.93840825
   0.90515363  5.70639848  2.15631746
   4.14275646 11.78013610  2.15631746
   8.46045399  5.70639848  2.15631746
  11.69805622 11.78013610  2.15631746
   0.26091433  2.77909971  2.53532100
   3.49851704  8.85283756  2.53532100
   7.81621408  2.77909971  2.53532100
  11.05381775  8.85283756  2.53532100
  -0.20871690 10.12153325  3.19978950
   4.12032468  4.05553593  3.20057966
   7.35869666 10.12927501  3.19920942
  11.67238042  4.04253768  3.21605172
   3.39734960  1.13520589  3.50516420
   6.63799111  7.20927439  3.51538344
  10.95653856  1.13966890  3.52152415
  14.19330388  7.20861448  3.52064067
   2.81702043  6.70746368  3.84536841
   7.14223027  0.62170612  3.85225527
  10.36300136  6.70694296  3.84733105
  14.68473606  0.63586287  3.85265335
   2.28931254 10.81447883  4.33984590
   6.60041985  4.73283672  4.33519369
   9.84704134 10.80841153  4.34459987
  14.16485180  4.74541318  4.36658666
   1.60239851  4.07126191  4.61221258
   4.82906127 10.14407200  4.63153335
   9.13684334  4.06483869  4.63738546
  12.39290100 10.16049927  4.64290648
   1.06100899  8.15156266  5.12985267
   5.36842227  2.06093441  5.10394545
   8.62480332  8.14963113  5.12567620
  12.93547455  2.07530870  5.17132945
   1.60706082  1.59150369  5.36695170
   4.82528593  7.66657767  5.37069162
   9.15809351  1.59594874  5.39134288
  12.37508649  7.67741150  5.38498065
  -0.24505686 10.85638361  5.73897305
   4.06187910  4.80946126  5.76727752
   7.30756498 10.85277833  5.75677632
  11.59288196  4.79319018  5.79475965
   0.51682456  5.98291815  6.44581228
   3.69726500 12.05533570  6.43423258
   7.97797201  5.99245452  6.42964158
  11.20358632 12.07851383  6.43576539
   2.99350626  9.11271395  6.77535891
   7.25619897  3.02923762  6.74537105
  10.53347032  9.10003483  6.77857867
  -0.20408358  3.05288770  6.75194548
   3.49021054  2.60327482  6.97979143
   6.70600568  8.65144267  6.96430466
  11.02335788  2.59956929  7.09615536
  14.27717821  8.64504909  7.00337662
   3.02084369  6.73262437  7.90145305
   7.29795330  0.62724280  7.83466941
  10.48035215  6.72443360  7.90088124
  14.90380489  0.67909603  7.87254117
   2.23342190  0.05267113  7.92089244
   5.48218224  6.12874016  7.99485004
   8.65164616 12.14354873  7.99976714
  12.99646629  6.08319861  7.88121545
   1.73086044  3.90463692  8.42225814
   4.95326504  9.95104300  8.42441500
   9.06065622  3.78803045  8.44477836
  12.57810799 10.14472165  8.27613073
   1.13758547  9.71582614  8.53490902
   5.44594425  3.63536289  8.52324131
   8.65240604  9.64013840  8.51946826
  13.12194990  3.58040512  8.54347140
   0.40056110  6.61514097  8.98457307
   4.74156790  0.52101511  8.98015874
   8.16311584  6.57443442  9.01368829
  12.29411664  0.50679895  8.99125707
  11.49854091  8.24266202  9.66821331
  10.93625024  5.06987190 10.04118359
  11.23555057  6.42519297 12.97667746
   9.71469745 10.11902725 13.06506145
  11.96354030  8.92039137 10.18273127
   8.68407689  9.63323449 11.70117456
  10.44036502  9.81091231 11.48327281
   9.11730296  7.65555922 13.30320628
   8.61548206  7.17361545 11.45987307
  11.94747880  7.87128316 12.06949319
   9.65958382  9.47005923 12.17750343
  11.06307735  7.37376624 12.46544410
   9.85612773  8.03238062 12.59713632
 


--------------------------------------------------------------------------------------------------------


 k-point  1 :   0.2500 0.2500 0.0000  plane waves:  111683
 k-point  2 :  -0.2500 0.2500 0.0000  plane waves:  111725

 maximum and minimum number of plane-waves per node :     18644    18587

 maximum number of plane-waves:    111725
 maximum index in each direction: 
   IXMAX=   27   IYMAX=   21   IZMAX=   43
   IXMIN=  -27   IYMIN=  -22   IZMIN=  -43


 real space projection operators:
  total allocation   :      22031.78 KBytes
  max/ min on nodes  :       3677.00       3666.09


 parallel 3D FFT for wavefunctions:
    minimum data exchange during FFTs selected (reduces bandwidth)
 parallel 3D FFT for charge:
    minimum data exchange during FFTs selected (reduces bandwidth)


 total amount of memory used by VASP MPI-rank0   174551. kBytes
=======================================================================

   base      :      30000. kBytes
   nonlr-proj:      11335. kBytes
   fftplans  :       9317. kBytes
   grid      :      26149. kBytes
   one-center:        839. kBytes
   wavefun   :      96911. kBytes
 
     INWAV:  cpu time    8.6250: real time    8.7276
 Broyden mixing: mesh for mixing (old mesh)
   NGX = 55   NGY = 45   NGZ = 87
  (NGX  =168   NGY  =140   NGZ  =280)
  gives a total of 215325 points

 initial charge density was supplied:
 number of electron    1196.0000073 magnetization      -0.0000000
 keeping initial charge density in first step


--------------------------------------------------------------------------------------------------------


 Maximum index for non-local projection operator          433
 Maximum index for augmentation-charges          476 (set IRDMAX)


--------------------------------------------------------------------------------------------------------


 First call to EWALD:  gamma=   0.108
 Maximum number of real-space cells 3x 4x 2
 Maximum number of reciprocal cells 3x 2x 4

    FEWALD:  cpu time    0.0050: real time    0.0050


--------------------------------------- Iteration      1(   1)  ---------------------------------------


    POTLOK:  cpu time    0.2243: real time    0.2255
    SETDIJ:  cpu time    0.0219: real time    0.0220
     EDDAV:  cpu time   27.8926: real time   27.9757
       DOS:  cpu time    0.0007: real time    0.0007
    CHARGE:  cpu time    1.1952: real time    1.1982
    MIXING:  cpu time    0.0064: real time    0.0066
    --------------------------------------------
      LOOP:  cpu time   29.3411: real time   29.4287

 eigenvalue-minimisations  :  6304
 total energy-change (2. order) :-0.1327807E+04  (-0.1304573E+00)
 number of electron    1196.0000073 magnetization      -0.0000000
 augmentation part       73.6623645 magnetization      -0.0000000

 Broyden mixing:
  rms(total) = 0.94715E-01    rms(broyden)= 0.94635E-01
  rms(prec ) = 0.95923E-01
  weight for this iteration     100.00

 Free energy of the ion-electron system (eV)
  ---------------------------------------------------
  alpha Z        PSCENC =      2113.54737298
  Ewald energy   TEWEN  =    392280.96723967
  -Hartree energ DENC   =   -488801.79852425
  -exchange      EXHF   =         0.00000000
  -V(xc)+E(xc)   XCENC  =      5278.74866909
  PAW double counting   =    128893.12554100  -128213.96448028
  entropy T*S    EENTRO =        -0.00000000
  eigenvalues    EBANDS =    -18717.33506550
  atomic energy  EATOM  =    105838.90241102
  Solvation  Ediel_sol  =         0.00000000
  ---------------------------------------------------
  free energy    TOTEN  =     -1327.80683627 eV

  energy without entropy =    -1327.80683627  energy(sigma->0) =    -1327.80683627


--------------------------------------------------------------------------------------------------------




--------------------------------------- Iteration      1(   2)  ---------------------------------------


    POTLOK:  cpu time    0.2146: real time    0.2160
    SETDIJ:  cpu time    0.0214: real time    0.0215
     EDDAV:  cpu time   27.1982: real time   27.2825
       DOS:  cpu time    0.0006: real time    0.0006
    CHARGE:  cpu time    1.1893: real time    1.1924
    MIXING:  cpu time    0.0062: real time    0.0063
    --------------------------------------------
      LOOP:  cpu time   28.6303: real time   28.7193

 eigenvalue-minimisations  :  6112
 total energy-change (2. order) :-0.1745052E+01  (-0.1163721E+00)
 number of electron    1196.0000073 magnetization      -0.0000000
 augmentation part       73.5898478 magnetization      -0.0000000

 Broyden mixing:
  rms(total) = 0.40376E-01    rms(broyden)= 0.40259E-01
  rms(prec ) = 0.42442E-01
  weight for this iteration     100.00

 eigenvalues of (default mixing * dielectric matrix)
  average eigenvalue GAMMA=   0.7378
  0.7378

 Free energy of the ion-electron system (eV)
  ---------------------------------------------------
  alpha Z        PSCENC =      2113.54737298
  Ewald energy   TEWEN  =    392280.96723967
  -Hartree energ DENC   =   -488802.86403103
  -exchange      EXHF   =         0.00000000
  -V(xc)+E(xc)   XCENC  =      5278.83965718
  PAW double counting   =    128749.92060776  -128069.71093523
  entropy T*S    EENTRO =        -0.00000000
  eigenvalues    EBANDS =    -18719.15421070
  atomic energy  EATOM  =    105838.90241102
  Solvation  Ediel_sol  =         0.00000000
  ---------------------------------------------------
  free energy    TOTEN  =     -1329.55188835 eV

  energy without entropy =    -1329.55188835  energy(sigma->0) =    -1329.55188835


--------------------------------------------------------------------------------------------------------




--------------------------------------- Iteration      1(   3)  ---------------------------------------


    POTLOK:  cpu time    0.2118: real time    0.2125
    SETDIJ:  cpu time    0.0214: real time    0.0214
     EDDAV:  cpu time   29.2960: real time   29.3808
       DOS:  cpu time    0.0006: real time    0.0006
    CHARGE:  cpu time    1.1934: real time    1.1967
    MIXING:  cpu time    0.0061: real time    0.0061
    --------------------------------------------
      LOOP:  cpu time   30.7293: real time   30.8181

 eigenvalue-minimisations  :  6720
 total energy-change (2. order) :-0.9782279E-02  (-0.4024474E-02)
 number of electron    1196.0000073 magnetization      -0.0000000
 augmentation part       73.6206138 magnetization      -0.0000000

 Broyden mixing:
  rms(total) = 0.27496E-01    rms(broyden)= 0.27478E-01
  rms(prec ) = 0.27902E-01
  weight for this iteration     100.00

 eigenvalues of (default mixing * dielectric matrix)
  average eigenvalue GAMMA=   0.6942
  0.6942  0.6942

 Free energy of the ion-electron system (eV)
  ---------------------------------------------------
  alpha Z        PSCENC =      2113.54737298
  Ewald energy   TEWEN  =    392280.96723967
  -Hartree energ DENC   =   -488800.49178020
  -exchange      EXHF   =         0.00000000
  -V(xc)+E(xc)   XCENC  =      5278.64955289
  PAW double counting   =    128777.01553316  -128096.06343710
  entropy T*S    EENTRO =        -0.00000000
  eigenvalues    EBANDS =    -18722.08856304
  atomic energy  EATOM  =    105838.90241102
  Solvation  Ediel_sol  =         0.00000000
  ---------------------------------------------------
  free energy    TOTEN  =     -1329.56167062 eV

  energy without entropy =    -1329.56167062  energy(sigma->0) =    -1329.56167062


--------------------------------------------------------------------------------------------------------




--------------------------------------- Iteration      1(   4)  ---------------------------------------


    POTLOK:  cpu time    0.2124: real time    0.2142
    SETDIJ:  cpu time    0.0215: real time    0.0216
     EDDAV:  cpu time   25.0454: real time   25.1173
       DOS:  cpu time    0.0005: real time    0.0005
    CHARGE:  cpu time    1.1825: real time    1.1873
    MIXING:  cpu time    0.0065: real time    0.0065
    --------------------------------------------
      LOOP:  cpu time   26.4698: real time   26.5474

 eigenvalue-minimisations  :  5504
 total energy-change (2. order) :-0.3945516E-04  (-0.2040617E-03)
 number of electron    1196.0000073 magnetization      -0.0000000
 augmentation part       73.6159540 magnetization      -0.0000000

 Broyden mixing:
  rms(total) = 0.22282E-01    rms(broyden)= 0.22281E-01
  rms(prec ) = 0.22580E-01
  weight for this iteration     100.00

 eigenvalues of (default mixing * dielectric matrix)
  average eigenvalue GAMMA=   0.6866
  0.7727  0.7727  0.5143

 Free energy of the ion-electron system (eV)
  ---------------------------------------------------
  alpha Z        PSCENC =      2113.54737298
  Ewald energy   TEWEN  =    392280.96723967
  -Hartree energ DENC   =   -488801.26715639
  -exchange      EXHF   =         0.00000000
  -V(xc)+E(xc)   XCENC  =      5278.71636647
  PAW double counting   =    128806.17749348  -128125.17308652
  entropy T*S    EENTRO =        -0.00000000
  eigenvalues    EBANDS =    -18721.43235080
  atomic energy  EATOM  =    105838.90241102
  Solvation  Ediel_sol  =         0.00000000
  ---------------------------------------------------
  free energy    TOTEN  =     -1329.56171008 eV

  energy without entropy =    -1329.56171008  energy(sigma->0) =    -1329.56171008


--------------------------------------------------------------------------------------------------------




--------------------------------------- Iteration      1(   5)  ---------------------------------------


    POTLOK:  cpu time    0.2125: real time    0.2151
    SETDIJ:  cpu time    0.0214: real time    0.0215
     EDDAV:  cpu time   28.7911: real time   28.8748
       DOS:  cpu time    0.0006: real time    0.0006
    CHARGE:  cpu time    1.1906: real time    1.1948
    MIXING:  cpu time    0.0067: real time    0.0067
    --------------------------------------------
      LOOP:  cpu time   30.2221: real time   30.3134

 eigenvalue-minimisations  :  6592
 total energy-change (2. order) :-0.7044757E-05  (-0.1972025E-04)
 number of electron    1196.0000073 magnetization      -0.0000000
 augmentation part       73.6216406 magnetization      -0.0000000

 Broyden mixing:
  rms(total) = 0.18755E-01    rms(broyden)= 0.18755E-01
  rms(prec ) = 0.19008E-01
  weight for this iteration     100.00

 eigenvalues of (default mixing * dielectric matrix)
  average eigenvalue GAMMA=   0.7263
  0.9058  0.9058  0.5468  0.5468

 Free energy of the ion-electron system (eV)
  ---------------------------------------------------
  alpha Z        PSCENC =      2113.54737298
  Ewald energy   TEWEN  =    392280.96723967
  -Hartree energ DENC   =   -488801.34629587
  -exchange      EXHF   =         0.00000000
  -V(xc)+E(xc)   XCENC  =      5278.72039536
  PAW double counting   =    128823.92357820  -128142.88226515
  entropy T*S    EENTRO =        -0.00000000
  eigenvalues    EBANDS =    -18721.39415334
  atomic energy  EATOM  =    105838.90241102
  Solvation  Ediel_sol  =         0.00000000
  ---------------------------------------------------
  free energy    TOTEN  =     -1329.56171712 eV

  energy without entropy =    -1329.56171712  energy(sigma->0) =    -1329.56171712


--------------------------------------------------------------------------------------------------------




--------------------------------------- Iteration      1(   6)  ---------------------------------------


    POTLOK:  cpu time    0.2112: real time    0.2119
    SETDIJ:  cpu time    0.0214: real time    0.0215
     EDDAV:  cpu time   29.0526: real time   29.1369
       DOS:  cpu time    0.0005: real time    0.0005
    CHARGE:  cpu time    1.1931: real time    1.1964
    MIXING:  cpu time    0.0070: real time    0.0070
    --------------------------------------------
      LOOP:  cpu time   30.4859: real time   30.5741

 eigenvalue-minimisations  :  6656
 total energy-change (2. order) :-0.1219360E-04  (-0.2321295E-05)
 number of electron    1196.0000073 magnetization       0.0000000
 augmentation part       73.6231610 magnetization      -0.0000000

 Broyden mixing:
  rms(total) = 0.16210E-01    rms(broyden)= 0.16210E-01
  rms(prec ) = 0.16438E-01
  weight for this iteration     100.00

 eigenvalues of (default mixing * dielectric matrix)
  average eigenvalue GAMMA=   0.7967
  1.1292  1.1292  0.5223  0.6013  0.6013

 Free energy of the ion-electron system (eV)
  ---------------------------------------------------
  alpha Z        PSCENC =      2113.54737298
  Ewald energy   TEWEN  =    392280.96723967
  -Hartree energ DENC   =   -488801.49534172
  -exchange      EXHF   =         0.00000000
  -V(xc)+E(xc)   XCENC  =      5278.72842402
  PAW double counting   =    128838.19313632  -128157.13916452
  entropy T*S    EENTRO =        -0.00000000
  eigenvalues    EBANDS =    -18721.26580707
  atomic energy  EATOM  =    105838.90241102
  Solvation  Ediel_sol  =         0.00000000
  ---------------------------------------------------
  free energy    TOTEN  =     -1329.56172932 eV

  energy without entropy =    -1329.56172932  energy(sigma->0) =    -1329.56172932


--------------------------------------------------------------------------------------------------------




--------------------------------------- Iteration      1(   7)  ---------------------------------------


    POTLOK:  cpu time    0.2167: real time    0.2174
    SETDIJ:  cpu time    0.0214: real time    0.0215
     EDDAV:  cpu time   29.2700: real time   29.3543
       DOS:  cpu time    0.0008: real time    0.0008
    CHARGE:  cpu time    1.1958: real time    1.1989
    MIXING:  cpu time    0.0076: real time    0.0076
    --------------------------------------------
      LOOP:  cpu time   30.7133: real time   30.8005

 eigenvalue-minimisations  :  6656
 total energy-change (2. order) :-0.8483446E-05  (-0.2312357E-05)
 number of electron    1196.0000073 magnetization      -0.0000000
 augmentation part       73.6243604 magnetization      -0.0000000

 Broyden mixing:
  rms(total) = 0.12935E-01    rms(broyden)= 0.12935E-01
  rms(prec ) = 0.13115E-01
  weight for this iteration     100.00

 eigenvalues of (default mixing * dielectric matrix)
  average eigenvalue GAMMA=   0.8525
  1.3323  1.3323  0.6800  0.6800  0.5453  0.5453

 Free energy of the ion-electron system (eV)
  ---------------------------------------------------
  alpha Z        PSCENC =      2113.54737298
  Ewald energy   TEWEN  =    392280.96723967
  -Hartree energ DENC   =   -488801.56885365
  -exchange      EXHF   =         0.00000000
  -V(xc)+E(xc)   XCENC  =      5278.73392699
  PAW double counting   =    128855.63944212  -128174.57214305
  entropy T*S    EENTRO =        -0.00000000
  eigenvalues    EBANDS =    -18721.21113388
  atomic energy  EATOM  =    105838.90241102
  Solvation  Ediel_sol  =         0.00000000
  ---------------------------------------------------
  free energy    TOTEN  =     -1329.56173780 eV

  energy without entropy =    -1329.56173780  energy(sigma->0) =    -1329.56173780


--------------------------------------------------------------------------------------------------------




--------------------------------------- Iteration      1(   8)  ---------------------------------------


    POTLOK:  cpu time    0.2129: real time    0.2144
    SETDIJ:  cpu time    0.0213: real time    0.0213
     EDDAV:  cpu time   27.0986: real time   27.1787
       DOS:  cpu time    0.0005: real time    0.0005
    CHARGE:  cpu time    1.1927: real time    1.1968
    MIXING:  cpu time    0.0076: real time    0.0077
    --------------------------------------------
      LOOP:  cpu time   28.5328: real time   28.6194

 eigenvalue-minimisations  :  6080
 total energy-change (2. order) :-0.5625232E-05  (-0.1582949E-05)
 number of electron    1196.0000073 magnetization      -0.0000000
 augmentation part       73.6258825 magnetization      -0.0000000

 Broyden mixing:
  rms(total) = 0.10699E-01    rms(broyden)= 0.10699E-01
  rms(prec ) = 0.10841E-01
  weight for this iteration     100.00

 eigenvalues of (default mixing * dielectric matrix)
  average eigenvalue GAMMA=   0.9086
  1.5689  1.5689  0.7638  0.7638  0.5311  0.5817  0.5817

 Free energy of the ion-electron system (eV)
  ---------------------------------------------------
  alpha Z        PSCENC =      2113.54737298
  Ewald energy   TEWEN  =    392280.96723967
  -Hartree energ DENC   =   -488801.61824394
  -exchange      EXHF   =         0.00000000
  -V(xc)+E(xc)   XCENC  =      5278.73703806
  PAW double counting   =    128867.69395805  -128186.61721226
  entropy T*S    EENTRO =        -0.00000000
  eigenvalues    EBANDS =    -18721.17430701
  atomic energy  EATOM  =    105838.90241102
  Solvation  Ediel_sol  =         0.00000000
  ---------------------------------------------------
  free energy    TOTEN  =     -1329.56174343 eV

  energy without entropy =    -1329.56174343  energy(sigma->0) =    -1329.56174343


--------------------------------------------------------------------------------------------------------




--------------------------------------- Iteration      1(   9)  ---------------------------------------


    POTLOK:  cpu time    0.2116: real time    0.2122
    SETDIJ:  cpu time    0.0213: real time    0.0213
     EDDAV:  cpu time   20.2732: real time   20.3324
       DOS:  cpu time    0.0006: real time    0.0006
    CHARGE:  cpu time    1.2006: real time    1.2038
    MIXING:  cpu time    0.0079: real time    0.0080
    --------------------------------------------
      LOOP:  cpu time   21.7152: real time   21.7782

 eigenvalue-minimisations  :  4128
 total energy-change (2. order) :-0.4707588E-05  (-0.4609180E-06)
 number of electron    1196.0000073 magnetization      -0.0000000
 augmentation part       73.6267563 magnetization      -0.0000000

 Broyden mixing:
  rms(total) = 0.91017E-02    rms(broyden)= 0.91017E-02
  rms(prec ) = 0.92251E-02
  weight for this iteration     100.00

 eigenvalues of (default mixing * dielectric matrix)
  average eigenvalue GAMMA=   1.0580
  2.0802  2.0802  0.9164  0.9164  0.6592  0.6592  0.5762  0.5762

 Free energy of the ion-electron system (eV)
  ---------------------------------------------------
  alpha Z        PSCENC =      2113.54737298
  Ewald energy   TEWEN  =    392280.96723967
  -Hartree energ DENC   =   -488801.64750414
  -exchange      EXHF   =         0.00000000
  -V(xc)+E(xc)   XCENC  =      5278.73849691
  PAW double counting   =    128876.33741956  -128195.25869126
  entropy T*S    EENTRO =        -0.00000000
  eigenvalues    EBANDS =    -18721.14849287
  atomic energy  EATOM  =    105838.90241102
  Solvation  Ediel_sol  =         0.00000000
  ---------------------------------------------------
  free energy    TOTEN  =     -1329.56174813 eV

  energy without entropy =    -1329.56174813  energy(sigma->0) =    -1329.56174813


--------------------------------------------------------------------------------------------------------




--------------------------------------- Iteration      1(  10)  ---------------------------------------


    POTLOK:  cpu time    0.2125: real time    0.2132
    SETDIJ:  cpu time    0.0211: real time    0.0212
     EDDAV:  cpu time   28.5313: real time   28.6152
       DOS:  cpu time    0.0005: real time    0.0005
    CHARGE:  cpu time    1.2059: real time    1.2099
    MIXING:  cpu time    0.0083: real time    0.0084
    --------------------------------------------
      LOOP:  cpu time   29.9798: real time   30.0684

 eigenvalue-minimisations  :  6528
 total energy-change (2. order) :-0.6251328E-05  (-0.2671989E-05)
 number of electron    1196.0000073 magnetization      -0.0000000
 augmentation part       73.6280021 magnetization      -0.0000000

 Broyden mixing:
  rms(total) = 0.52205E-02    rms(broyden)= 0.52204E-02
  rms(prec ) = 0.52950E-02
  weight for this iteration     100.00

 eigenvalues of (default mixing * dielectric matrix)
  average eigenvalue GAMMA=   1.1152
  2.3918  2.3918  1.0576  1.0576  0.6889  0.6889  0.5777  0.5913  0.5913

 Free energy of the ion-electron system (eV)
  ---------------------------------------------------
  alpha Z        PSCENC =      2113.54737298
  Ewald energy   TEWEN  =    392280.96723967
  -Hartree energ DENC   =   -488801.72513206
  -exchange      EXHF   =         0.00000000
  -V(xc)+E(xc)   XCENC  =      5278.74257975
  PAW double counting   =    128896.89886926  -128215.81142398
  entropy T*S    EENTRO =        -0.00000000
  eigenvalues    EBANDS =    -18721.08367102
  atomic energy  EATOM  =    105838.90241102
  Solvation  Ediel_sol  =         0.00000000
  ---------------------------------------------------
  free energy    TOTEN  =     -1329.56175439 eV

  energy without entropy =    -1329.56175439  energy(sigma->0) =    -1329.56175439


--------------------------------------------------------------------------------------------------------




--------------------------------------- Iteration      1(  11)  ---------------------------------------


    POTLOK:  cpu time    0.2125: real time    0.2132
[...]
   0.319E+02 -.227E+02 -.140E+04   -.285E+02 0.234E+02 0.140E+04   -.348E+01 -.774E+00 -.388E+01   -.151E-03 0.872E-04 -.297E-03
   0.770E+01 -.587E+02 -.137E+04   -.399E+01 0.601E+02 0.138E+04   -.372E+01 -.144E+01 -.395E+01   -.176E-03 -.355E-04 -.310E-03
   -.135E+03 0.495E+01 -.121E+04   0.138E+03 -.343E+01 0.121E+04   -.316E+01 -.153E+01 -.325E+00   0.167E-03 0.555E-04 -.429E-03
   -.437E+02 -.824E+01 -.162E+04   0.441E+02 0.120E+02 0.163E+04   -.450E+00 -.375E+01 -.834E+01   0.298E-03 0.484E-04 -.281E-03
   0.240E+02 -.296E+02 -.161E+04   -.235E+02 0.335E+02 0.162E+04   -.523E+00 -.387E+01 -.839E+01   0.397E-03 0.794E-04 -.107E-03
   0.231E+02 0.852E+02 -.153E+04   -.175E+02 -.810E+02 0.154E+04   -.559E+01 -.424E+01 -.969E+01   -.755E-05 -.349E-04 -.179E-03
   -.952E+02 -.115E+03 -.146E+04   0.943E+02 0.118E+03 0.146E+04   0.899E+00 -.322E+01 -.576E+01   0.311E-03 0.321E-03 -.348E-03
   -.505E+02 0.467E+01 -.167E+04   0.523E+02 -.609E+01 0.168E+04   -.173E+01 0.142E+01 -.110E+02   -.398E-03 0.230E-03 -.197E-03
   0.338E+02 0.420E+02 -.166E+04   -.320E+02 -.438E+02 0.168E+04   -.179E+01 0.181E+01 -.112E+02   -.380E-03 0.228E-03 -.225E-03
   0.784E+02 -.754E+02 -.157E+04   -.758E+02 0.750E+02 0.158E+04   -.261E+01 0.371E+00 -.114E+02   -.483E-03 0.158E-03 -.375E-04
   -.106E+03 0.854E+02 -.161E+04   0.109E+03 -.869E+02 0.162E+04   -.275E+01 0.151E+01 -.113E+02   -.238E-03 0.785E-04 0.127E-03
   -.764E+02 -.365E+02 -.180E+04   0.760E+02 0.403E+02 0.182E+04   0.454E+00 -.378E+01 -.182E+02   -.108E-03 -.237E-03 -.602E-03
   0.152E+02 -.462E+02 -.182E+04   -.149E+02 0.501E+02 0.184E+04   -.245E+00 -.394E+01 -.182E+02   -.781E-04 -.916E-04 -.677E-03
   0.261E+03 0.218E+01 -.161E+04   -.269E+03 -.153E+00 0.162E+04   0.852E+01 -.205E+01 -.795E+01   -.573E-03 -.548E-04 0.187E-03
   -.247E+02 -.823E+02 -.179E+04   0.250E+02 0.868E+02 0.180E+04   -.321E+00 -.454E+01 -.181E+02   0.414E-05 -.130E-03 -.528E-03
   -.161E+03 -.137E+03 -.162E+04   0.149E+03 0.121E+03 0.161E+04   0.116E+02 0.166E+02 0.137E+02   0.403E-03 0.332E-03 0.398E-03
   -.104E+03 0.294E+03 -.175E+04   0.110E+03 -.309E+03 0.176E+04   -.632E+01 0.145E+02 -.117E+02   -.114E-03 0.119E-03 0.918E-04
   -.263E+02 0.572E+02 -.222E+03   0.272E+02 -.622E+02 0.225E+03   -.969E+00 0.495E+01 -.267E+01   -.468E-04 0.108E-03 0.316E-04
   0.395E+01 -.551E+02 -.221E+03   -.368E+01 0.583E+02 0.225E+03   -.274E+00 -.329E+01 -.440E+01   -.679E-05 -.606E-04 0.130E-04
   -.685E+02 -.762E+02 -.314E+03   0.726E+02 0.821E+02 0.319E+03   -.408E+01 -.589E+01 -.435E+01   -.411E-05 0.505E-05 0.941E-04
   0.678E+02 -.340E+02 -.209E+03   -.728E+02 0.348E+02 0.207E+03   0.498E+01 -.841E+00 0.245E+01   -.130E-04 -.740E-04 0.769E-04
   -.333E+02 -.534E+02 -.212E+03   0.372E+02 0.552E+02 0.209E+03   -.386E+01 -.181E+01 0.342E+01   -.189E-04 -.263E-04 0.980E-04
   0.540E+02 0.201E+02 -.218E+03   -.580E+02 -.223E+02 0.222E+03   0.404E+01 0.209E+01 -.379E+01   -.122E-04 -.185E-04 -.515E-04
   0.655E+02 0.630E+01 -.257E+03   -.668E+02 -.615E+01 0.258E+03   0.127E+01 -.181E+00 -.739E+00   -.148E-03 0.605E-04 0.180E-03
   -.765E+02 -.239E+02 -.219E+03   0.811E+02 0.264E+02 0.217E+03   -.468E+01 -.251E+01 0.198E+01   -.850E-04 -.186E-04 0.136E-03
   0.550E+02 -.155E+03 -.862E+03   -.557E+02 0.155E+03 0.862E+03   0.611E+00 -.857E+00 0.311E+00   -.111E-03 -.206E-03 0.270E-03
   -.138E+03 0.507E+02 -.900E+03   0.140E+03 -.513E+02 0.901E+03   -.187E+01 0.630E+00 -.850E+00   -.820E-04 0.747E-04 0.531E-03
   0.889E+02 -.150E+02 -.885E+03   -.888E+02 0.157E+02 0.888E+03   -.174E+00 -.737E+00 -.305E+01   -.148E-03 -.199E-03 0.254E-03
 -----------------------------------------------------------------------------------------------
   0.100E+02 0.142E+01 0.729E+02   -.270E-12 -.291E-12 0.251E-10   -.101E+02 -.171E+01 -.730E+02   -.321E-03 0.129E-02 0.320E-01
 
 
 POSITION                                       TOTAL-FORCE (eV/Angst)
 -----------------------------------------------------------------------------------
      0.99046      3.89727      0.91670        -1.481322     -1.856555     -0.690281
      4.22806      9.97101      0.91670        -1.487770     -1.881308     -0.741892
      8.54576      3.89727      0.91670        -1.359330     -1.935403     -0.754181
     11.78336      9.97101      0.91670        -1.356037     -1.842320     -0.761118
      0.16045     10.12553      1.16818        -0.209590      1.667179      0.294402
      4.47815      4.05179      1.16818        -0.184618      1.719650      0.216534
      7.71575     10.12553      1.16818        -0.106525      1.759197      0.179891
     12.03345      4.05179      1.16818        -0.133760      1.828589      0.533543
      3.52055      0.82336      1.36715        -0.830517     -0.874738      1.555180
      6.75815      6.89709      1.36715        -0.836055     -0.877411      1.553734
     11.07585      0.82336      1.36715        -0.770920     -0.803623      1.742429
     14.31345      6.89709      1.36715        -0.964061     -0.972193      1.777479
      2.69053      7.05173      1.61862         1.484335      0.467807     -2.478937
      7.00822      0.97799      1.61862         1.585373      0.459443     -2.476848
     10.24583      7.05173      1.61862         1.750316      0.382547     -2.458023
     14.56352      0.97799      1.61862         1.532883      0.510987     -2.461063
      0.54508     11.94583      4.09561         0.001302      0.000146      0.000772
      4.86419      5.87735      4.10209         0.000606      0.001132      0.001162
      8.12007     11.95863      4.10492         0.002143     -0.002858     -0.003560
     12.40322      5.85950      4.15416        -0.002344     -0.002003     -0.000376
      0.81748      6.01182      4.37639         0.003106      0.002315      0.000906
      4.05138     12.08652      4.36932         0.005291     -0.001841     -0.000003
      8.37497      5.98555      4.35975         0.001526     -0.001632      0.004445
     11.60386     12.09763      4.37716         0.001039     -0.001902      0.001861
     -0.17688      2.80017      4.58890        -0.002972      0.004187     -0.000095
      3.04434      8.86714      4.58555         0.000607      0.002003     -0.000986
      7.37069      2.78368      4.57701        -0.000839      0.000416     -0.001702
     10.65194      8.87295      4.57470         0.000731     -0.003227      0.001281
      3.36380      2.94235      4.81433         0.000870     -0.001534      0.000118
      6.57931      9.02393      4.79522         0.003193     -0.002407     -0.000420
     10.93894      2.98447      4.89093        -0.000809     -0.001623     -0.002819
     14.14975      8.99819      4.83269        -0.002442     -0.005220      0.000542
      1.17340      7.78787      7.53018        -0.002233     -0.000618     -0.008265
      5.47402      1.70176      7.50537         0.003760     -0.000581     -0.001412
      8.72207      7.85044      7.32699         0.002867      0.002058      0.003328
     13.06594      1.69973      7.53080         0.000578     -0.001820      0.003755
      1.48703      1.96401      7.49018        -0.000033     -0.001056     -0.002128
      4.70644      8.01310      7.49735        -0.005281      0.002430     -0.002373
      8.99700      1.91321      7.50608        -0.000284      0.000136     -0.005041
     12.27587      8.04426      7.59056        -0.000657      0.001565      0.010261
     -0.53927     10.80879      7.76461         0.001592     -0.001515     -0.002721
      3.75599      4.71891      7.80159        -0.001193     -0.000425     -0.001299
      6.97457     10.76933      7.78972        -0.001772     -0.000084      0.000171
     11.36280      4.64740      8.03098        -0.000845      0.002628     -0.003719
     -0.28521      4.95093      8.04996        -0.001540     -0.005072      0.000472
      2.94209     11.01845      8.05701         0.001299     -0.001049     -0.001182
      7.25871      4.88181      8.01763        -0.004017      0.000298      0.002225
     10.50598     11.02719      8.05189         0.000788     -0.004609     -0.000938
     10.00781      6.75751     10.16025         0.002459     -0.003263      0.003967
      0.18233      2.09605      0.00000         0.269636      0.966594      1.264875
      3.41993      8.16979      0.00000         0.288610      0.995889      1.262796
      7.73763      2.09605      0.00000         0.258526      0.975712      1.274658
     10.97523      8.16979      0.00000         0.249359      0.999614      1.276346
      2.77584      5.24249      0.37900        -0.006446     -0.931156      0.579541
      6.01345     11.31622      0.37900        -0.034281     -0.930501      0.583189
     10.33114      5.24249      0.37900        -0.102874     -0.925127      0.574072
     13.56875     11.31622      0.37900        -0.050101     -0.925482      0.569454
      2.16153     10.82255      0.59691         0.408237      1.208107     -0.192179
      6.47922      4.74881      0.59691         0.393775      1.219089     -0.192845
      9.71683     10.82255      0.59691         0.355350      1.180354     -0.194359
     14.03452      4.74881      0.59691         0.398092      1.169187     -0.222292
      2.73983      2.74654      1.05910         1.184480     -1.029641     -0.432346
      5.97744      8.82028      1.05910         1.168052     -1.047947     -0.410319
     10.29513      2.74654      1.05910         1.126245     -1.017857     -0.457116
     13.53273      8.82028      1.05910         1.131546     -1.002770     -0.452618
      0.94100      8.20246      1.47622        -1.108843     -0.299880     -0.909594
      5.25870      2.12872      1.47622        -1.124908     -0.310249     -0.900468
      8.49630      8.20246      1.47622        -1.180946     -0.314804     -0.898559
     12.81400      2.12872      1.47622        -1.138641     -0.323782     -0.914446
      1.51931      0.12646      1.93841         0.379328     -0.049161      0.186623
      4.75691      6.20019      1.93841         0.439526     -0.012410      0.213197
      9.07461      0.12646      1.93841         0.411172     -0.034656      0.243360
     12.31221      6.20019      1.93841         0.355303     -0.090817      0.355995
      0.90515      5.70640      2.15632        -0.365710      0.327755      0.124335
      4.14276     11.78014      2.15632        -0.348872      0.326852      0.145575
      8.46045      5.70640      2.15632        -0.410453      0.304949      0.141304
     11.69806     11.78014      2.15632        -0.386480      0.319233      0.166269
      0.26091      2.77910      2.53532         0.212202      0.411792      0.514028
      3.49852      8.85284      2.53532         0.239701      0.429144      0.567568
      7.81621      2.77910      2.53532         0.204586      0.389762      0.464079
     11.05382      8.85284      2.53532         0.261957      0.445752      0.462853
     -0.20872     10.12153      3.19979        -0.001941      0.000048     -0.000084
      4.12032      4.05554      3.20058         0.000369      0.002396     -0.000518
      7.35870     10.12928      3.19921        -0.003210      0.005845     -0.002066
     11.67238      4.04254      3.21605        -0.002383     -0.001061     -0.005593
      3.39735      1.13521      3.50516        -0.000929     -0.001248      0.006074
      6.63799      7.20927      3.51538         0.000936      0.006505     -0.000198
     10.95654      1.13967      3.52152         0.006291     -0.006197     -0.000949
     14.19330      7.20861      3.52064        -0.000890      0.000870     -0.000491
      2.81702      6.70746      3.84537         0.006511      0.000751      0.002487
      7.14223      0.62171      3.85226         0.000747     -0.000478     -0.003983
     10.36300      6.70694      3.84733        -0.005277     -0.001856     -0.001334
     14.68474      0.63586      3.85265         0.007247      0.009492      0.001228
      2.28931     10.81448      4.33985         0.004295      0.000689     -0.000542
      6.60042      4.73284      4.33519         0.001778      0.006246      0.008287
      9.84704     10.80841      4.34460        -0.004833     -0.000674      0.008297
     14.16485      4.74541      4.36659        -0.002576      0.003146      0.000674
      1.60240      4.07126      4.61221         0.006032      0.001443      0.002275
      4.82906     10.14407      4.63153        -0.007799      0.005053      0.007036
      9.13684      4.06484      4.63739        -0.001752     -0.003897     -0.001022
     12.39290     10.16050      4.64291        -0.004499     -0.001614      0.001733
      1.06101      8.15156      5.12985        -0.001168      0.003211      0.002080
      5.36842      2.06093      5.10395         0.006167      0.000584      0.000739
      8.62480      8.14963      5.12568        -0.011514     -0.002529      0.005735
     12.93547      2.07531      5.17133        -0.003191      0.005254     -0.004948
      1.60706      1.59150      5.36695        -0.003291     -0.003386     -0.007432
      4.82529      7.66658      5.37069         0.003784      0.001625     -0.001302
      9.15809      1.59595      5.39134        -0.004495      0.001708     -0.003029
     12.37509      7.67741      5.38498        -0.001628      0.000329      0.007249
     -0.24506     10.85638      5.73897        -0.002705     -0.001117     -0.000963
      4.06188      4.80946      5.76728         0.001430     -0.004999      0.001442
      7.30756     10.85278      5.75678        -0.001673      0.000894      0.005348
     11.59288      4.79319      5.79476        -0.001051     -0.004297     -0.001856
      0.51682      5.98292      6.44581         0.002652     -0.002355      0.001003
      3.69727     12.05534      6.43423         0.004516     -0.001904     -0.000808
      7.97797      5.99245      6.42964        -0.006606      0.003179      0.001695
     11.20359     12.07851      6.43577         0.006694     -0.001231     -0.000986
      2.99351      9.11271      6.77536        -0.000014     -0.001344     -0.005626
      7.25620      3.02924      6.74537        -0.012867     -0.002125      0.004376
     10.53347      9.10003      6.77858        -0.000545     -0.014470      0.000846
     -0.20408      3.05289      6.75195         0.001863      0.001686     -0.005502
      3.49021      2.60327      6.97979         0.001103     -0.000817      0.001905
      6.70601      8.65144      6.96430        -0.000227      0.000716      0.006615
     11.02336      2.59957      7.09616         0.002388      0.002846      0.001826
     14.27718      8.64505      7.00338        -0.005913     -0.007071      0.008357
      3.02084      6.73262      7.90145        -0.001472      0.002964     -0.002426
      7.29795      0.62724      7.83467        -0.000553     -0.007365      0.001053
     10.48035      6.72443      7.90088         0.010747      0.003081      0.007895
     14.90380      0.67910      7.87254        -0.003485     -0.000854      0.007383
      2.23342      0.05267      7.92089        -0.002216      0.000694      0.006893
      5.48218      6.12874      7.99485        -0.009563     -0.002993      0.001994
      8.65165     12.14355      7.99977         0.002929     -0.005556      0.003487
     12.99647      6.08320      7.88122         0.000944      0.000543      0.012032
      1.73086      3.90464      8.42226        -0.004214     -0.006583     -0.001129
      4.95327      9.95104      8.42441        -0.010200     -0.001430     -0.001344
      9.06066      3.78803      8.44478         0.002036      0.006519     -0.007391
     12.57811     10.14472      8.27613         0.003385     -0.006604     -0.004263
      1.13759      9.71583      8.53491         0.003722     -0.000057     -0.002227
      5.44594      3.63536      8.52324         0.004290     -0.001134     -0.000260
      8.65241      9.64014      8.51947         0.000967      0.002359     -0.005180
     13.12195      3.58041      8.54347        -0.004332      0.000194     -0.002796
      0.40056      6.61514      8.98457        -0.000136     -0.011758      0.008469
      4.74157      0.52102      8.98016         0.004966     -0.002267     -0.004143
      8.16312      6.57443      9.01369         0.002941     -0.015121      0.000563
     12.29412      0.50680      8.99126        -0.011766      0.002119     -0.006290
     11.49854      8.24266      9.66821        -0.032075     -0.020446     -0.010014
     10.93625      5.06987     10.04118         0.006293     -0.002968     -0.001513
     11.23555      6.42519     12.97668        -0.010853     -0.017872     -0.018990
      9.71470     10.11903     13.06506        -0.006447     -0.021897      0.028963
     11.96354      8.92039     10.18273         0.022761      0.022147      0.021658
      8.68408      9.63323     11.70117        -0.015198     -0.003339      0.019361
     10.44037      9.81091     11.48327        -0.018825      0.008304      0.024652
      9.11730      7.65556     13.30321         0.010879     -0.027552      0.012967
      8.61548      7.17362     11.45987         0.010243     -0.031478      0.009049
     11.94748      7.87128     12.06949        -0.021768      0.006360      0.004276
      9.65958      9.47006     12.17750        -0.012001     -0.011624      0.012362
     11.06308      7.37377     12.46544         0.007242     -0.000074      0.013203
      9.85613      8.03238     12.59714        -0.017096     -0.006523      0.013587
 -----------------------------------------------------------------------------------
    total drift:                               -0.098403     -0.284188     -0.022303


--------------------------------------------------------------------------------------------------------



  FREE ENERGIE OF THE ION-ELECTRON SYSTEM (eV)
  ---------------------------------------------------
  free  energy   TOTEN  =     -1348.53035101 eV

  energy  without entropy=    -1348.53035101  energy(sigma->0) =    -1348.53035101
 


--------------------------------------------------------------------------------------------------------


    POTLOK:  cpu time    0.2577: real time    0.2583


--------------------------------------------------------------------------------------------------------


 Dimer: Init Mode:
 Dimer: MODECAR found
 Dimer: -----------------
 Dimer: Itr    1 Rot    0

 Dimer: Central Point
 Dimer: F0      0.125208

 Dimer: Projection
 Dimer: N*F0 -1.516862971232742E-002
 Dimer: F0sq  1.567693178644903E-002
 Dimer: Feffsq   2.300873273497022E-004
 
 stress matrix after NEB project (eV)
    -55.76008    -24.42405     -0.81905
    -24.42405    -72.04582     -0.38986
     -0.81905     -0.38986     -7.87453
  FORCES: max atom, RMS     0.039333    0.009961
  FORCE total and by dimension    0.125208    0.032075
  Stress total and by dimension   97.757401   72.045822
 OPT: skip step - force has converged
 writing wavefunctions
     LOOP+:  cpu time  394.7772: real time  396.2304
    4ORBIT:  cpu time    0.0000: real time    0.0000

 total amount of memory used by VASP MPI-rank0   174551. kBytes
=======================================================================

   base      :      30000. kBytes
   nonlr-proj:      11335. kBytes
   fftplans  :       9317. kBytes
   grid      :      26149. kBytes
   one-center:        839. kBytes
   wavefun   :      96911. kBytes
 
  
  
 General timing and accounting informations for this job:
 ========================================================
  
                  Total CPU time used (sec):      424.025
                            User time (sec):      398.527
                          System time (sec):       25.498
                         Elapsed time (sec):      425.995
  
                   Maximum memory used (kb):      421024.
                   Average memory used (kb):           0.
  
                          Minor page faults:        95845
                          Major page faults:            0
                 Voluntary context switches:         1228
