       N       E                     dE             d eps       ncg     rms          rms(c)
DAV:   1    -0.127210326572E+04   -0.12721E+04   -0.12635E+00  6352   0.966E-01    0.959E-01
DAV:   2    -0.127384977479E+04   -0.17465E+01   -0.11281E+00  6272   0.936E-01    0.402E-01
DAV:   3    -0.127385969384E+04   -0.99190E-02   -0.38400E-02  6912   0.221E-01    0.277E-01
DAV:   4    -0.127385972521E+04   -0.31374E-04   -0.19997E-03  5696   0.556E-02    0.225E-01
DAV:   5    -0.127385973380E+04   -0.85878E-05   -0.18545E-04  6912   0.177E-02    0.190E-01
DAV:   6    -0.127385975055E+04   -0.16745E-04   -0.20988E-05  6720   0.703E-03    0.163E-01
DAV:   7    -0.127385976212E+04   -0.11573E-04   -0.23253E-05  6656   0.831E-03    0.129E-01
DAV:   8    -0.127385976951E+04   -0.73927E-05   -0.15276E-05  6144   0.613E-03    0.107E-01
DAV:   9    -0.127385977521E+04   -0.57001E-05   -0.34697E-06  3904   0.316E-03    0.927E-02
DAV:  10    -0.127385978383E+04   -0.86219E-05   -0.28623E-05  6336   0.875E-03    0.518E-02
DAV:  11    -0.127385978958E+04   -0.57417E-05   -0.24695E-05  6848   0.797E-03    0.193E-02
DAV:  12    -0.127385979072E+04   -0.11443E-05   -0.20397E-06  3520   0.215E-03    0.141E-02
DAV:  13    -0.127385979113E+04   -0.41389E-06   -0.12548E-06  3232   0.191E-03
   1 F= -.12924240E+04 E0= -.12924240E+04  d E =-.492817E-16  mag=     0.0000
