 vasp.5.4.4.18Apr17-6-g9f103f2a35 (build Mar 06 2019 14:20:02) complex          
  
 executed on             LinuxIFC date 2021.07.11  10:25:52
 running on  128 total cores
 distrk:  each k-point on  128 cores,    1 groups
 distr:  one band on NCORES_PER_BAND=  16 cores,    8 groups


--------------------------------------------------------------------------------------------------------


 INCAR:
 POTCAR:    PAW_PBE Zr_sv 04Jan2005               
 POTCAR:    PAW_PBE O 08Apr2002                   
 POTCAR:    PAW_PBE Zr_sv 04Jan2005               
   VRHFIN =Zr: 4s4p5s4d                                                         
   LEXCH  = PE                                                                  
   EATOM  =  1284.2219 eV,   94.3876 Ry                                         
                                                                                
   TITEL  = PAW_PBE Zr_sv 04Jan2005                                             
   LULTRA =        F    use ultrasoft PP ?                                      
   IUNSCR =        1    unscreen: 0-lin 1-nonlin 2-no                           
   RPACOR =    2.200    partial core radius                                     
   POMASS =   91.224; ZVAL   =   12.000    mass and valenz                      
   RCORE  =    2.500    outmost cutoff radius                                   
   RWIGS  =    3.070; RWIGS  =    1.625    wigner-seitz radius (au A)           
   ENMAX  =  229.898; ENMIN  =  172.424 eV                                      
   ICORE  =        3    local potential                                         
   LCOR   =        T    correct aug charges                                     
   LPAW   =        T    paw PP                                                  
   EAUG   =  461.257                                                            
   DEXC   =    0.000                                                            
   RMAX   =    2.561    core radius for proj-oper                               
   RAUG   =    1.300    factor for augmentation sphere                          
   RDEP   =    2.597    radius for radial grids                                 
   RDEPT  =    2.007    core radius for aug-charge                              
                                                                                
   Atomic configuration                                                         
   11 entries                                                                   
     n  l   j            E        occ.                                          
     1  0  0.50    -17820.0161   2.0000                                         
     2  0  0.50     -2467.0882   2.0000                                         
     2  1  1.50     -2199.6095   6.0000                                         
     3  0  0.50      -402.4863   2.0000                                         
     3  1  1.50      -315.3675   6.0000                                         
     3  2  2.50      -172.4472  10.0000                                         
     4  0  0.50       -52.4146   2.0000                                         
     5  0  0.50        -3.8421   1.0000                                         
     4  1  1.50       -30.5054   6.0000                                         
     4  2  2.50        -2.3341   3.0000                                         
     4  3  2.50        -1.3606   0.0000                                         
   Description                                                                  
     l       E           TYP  RCUT    TYP  RCUT                                 
     0    -52.4145962     23  2.200                                             
     0     -3.8421270     23  2.500                                             
     1    -30.5053914     23  2.200                                             
     1     20.4087390     23  2.200                                             
     2     -2.3340816     23  2.500                                             
     2     -0.6120942     23  2.500                                             
     3     -4.0817478     23  2.500                                             
  local pseudopotential read in
  partial core-charges read in
  partial kinetic energy density read in
  atomic valenz-charges read in
  non local Contribution for L=           0  read in
    real space projection operators read in
  non local Contribution for L=           0  read in
    real space projection operators read in
  non local Contribution for L=           1  read in
    real space projection operators read in
  non local Contribution for L=           1  read in
    real space projection operators read in
  non local Contribution for L=           2  read in
    real space projection operators read in
  non local Contribution for L=           2  read in
    real space projection operators read in
    PAW grid and wavefunctions read in
 
   number of l-projection  operators is LMAX  =           6
   number of lm-projection operators is LMMAX =          18
 
 POTCAR:    PAW_PBE O 08Apr2002                   
   VRHFIN =O: s2p4                                                              
   LEXCH  = PE                                                                  
   EATOM  =   432.3788 eV,   31.7789 Ry                                         
                                                                                
   TITEL  = PAW_PBE O 08Apr2002                                                 
   LULTRA =        F    use ultrasoft PP ?                                      
   IUNSCR =        1    unscreen: 0-lin 1-nonlin 2-no                           
   RPACOR =    1.200    partial core radius                                     
   POMASS =   16.000; ZVAL   =    6.000    mass and valenz                      
   RCORE  =    1.520    outmost cutoff radius                                   
   RWIGS  =    1.550; RWIGS  =    0.820    wigner-seitz radius (au A)           
   ENMAX  =  400.000; ENMIN  =  300.000 eV                                      
   ICORE  =        2    local potential                                         
   LCOR   =        T    correct aug charges                                     
   LPAW   =        T    paw PP                                                  
   EAUG   =  605.392                                                            
   DEXC   =    0.000                                                            
   RMAX   =    1.553    core radius for proj-oper                               
   RAUG   =    1.300    factor for augmentation sphere                          
   RDEP   =    1.550    radius for radial grids                                 
   RDEPT  =    1.329    core radius for aug-charge                              
                                                                                
   Atomic configuration                                                         
    4 entries                                                                   
     n  l   j            E        occ.                                          
     1  0  0.50      -514.6923   2.0000                                         
     2  0  0.50       -23.9615   2.0000                                         
     2  1  0.50        -9.0305   4.0000                                         
     3  2  1.50        -9.5241   0.0000                                         
   Description                                                                  
     l       E           TYP  RCUT    TYP  RCUT                                 
     0    -23.9615318     23  1.200                                             
     0     -9.5240782     23  1.200                                             
     1     -9.0304911     23  1.520                                             
     1      8.1634956     23  1.520                                             
     2     -9.5240782      7  1.500                                             
  local pseudopotential read in
  partial core-charges read in
  partial kinetic energy density read in
  kinetic energy density of atom read in
  atomic valenz-charges read in
  non local Contribution for L=           0  read in
    real space projection operators read in
  non local Contribution for L=           0  read in
    real space projection operators read in
  non local Contribution for L=           1  read in
    real space projection operators read in
  non local Contribution for L=           1  read in
    real space projection operators read in
    PAW grid and wavefunctions read in
 
   number of l-projection  operators is LMAX  =           4
   number of lm-projection operators is LMMAX =           8
 
 Optimization of the real space projectors (new method)

 maximal supplied QI-value         = 15.12
 optimisation between [QCUT,QGAM] = [ 11.34, 22.83] = [ 36.00,145.93] Ry 
 Optimized for a Real-space Cutoff    1.47 Angstroem

   l    n(q)    QCUT    max X(q) W(low)/X(q) W(high)/X(q)  e(spline) 
   0     10    11.338    12.107    0.38E-04    0.13E-04    0.27E-07
   0     10    11.338     9.948    0.69E-04    0.30E-04    0.38E-07
   1     10    11.338     3.563    0.26E-04    0.18E-04    0.40E-07
   1     10    11.338     4.524    0.25E-03    0.39E-04    0.44E-06
   2      9    11.338    87.261    0.26E-03    0.91E-05    0.26E-06
   2      9    11.338    70.950    0.25E-03    0.91E-05    0.25E-06
 Optimization of the real space projectors (new method)

 maximal supplied QI-value         = 24.76
 optimisation between [QCUT,QGAM] = [ 11.39, 22.77] = [ 36.31,145.25] Ry 
 Optimized for a Real-space Cutoff    1.00 Angstroem

   l    n(q)    QCUT    max X(q) W(low)/X(q) W(high)/X(q)  e(spline) 
   0      7    11.387    20.381    0.39E-03    0.13E-02    0.15E-06
   0      7    11.387    15.268    0.42E-03    0.14E-02    0.17E-06
   1      6    11.387     5.964    0.41E-03    0.11E-02    0.17E-06
   1      6    11.387     5.382    0.39E-03    0.87E-03    0.15E-06
  PAW_PBE Zr_sv 04Jan2005               :
 energy of atom  1       EATOM=-1284.2219
 kinetic energy error for atom=    0.0049 (will be added to EATOM!!)
  PAW_PBE O 08Apr2002                   :
 energy of atom  2       EATOM= -432.3788
 kinetic energy error for atom=    0.0224 (will be added to EATOM!!)
 
 
 POSCAR: CONTCAR                                 
  positions in direct lattice
  velocities in cartesian coordinates
  No initial velocities read in
 exchange correlation table for  LEXCH =        8
   RHO(1)=    0.500       N(1)  =     2000
   RHO(2)=  100.500       N(2)  =     4000
 


--------------------------------------------------------------------------------------------------------


 ion  position               nearest neighbor table
   1  0.088  0.321  0.038-  78 2.10  62 2.10  50 2.18  74 2.19  61 2.26  54 2.30  16 3.37   6 3.50
                            12 3.52  13 3.65
   2  0.338  0.821  0.038-  79 2.10  63 2.10  51 2.18  75 2.19  58 2.26  55 2.30  13 3.37   7 3.50
                             9 3.52  14 3.65
   3  0.588  0.321  0.038-  80 2.10  64 2.10  52 2.18  76 2.19  59 2.26  56 2.30  14 3.37   8 3.50
                            10 3.52  15 3.65
   4  0.838  0.821  0.038-  81 2.10  65 2.10  53 2.18  77 2.19  60 2.26  57 2.30  15 3.37   5 3.50
                            11 3.52  16 3.65
   5  0.070  0.834  0.049-  82 2.07  66 2.10  65 2.18  58 2.19  57 2.22  70 2.30  12 3.37  17 3.46
                             4 3.50  16 3.52   9 3.65
   6  0.320  0.334  0.049-  83 2.06  67 2.10  62 2.18  59 2.19  54 2.22  71 2.30   9 3.37  18 3.48
                             1 3.50  13 3.52  10 3.65
   7  0.570  0.834  0.049-  84 2.06  68 2.10  63 2.18  60 2.19  55 2.22  72 2.30  10 3.37  19 3.48
                             2 3.50  14 3.52  11 3.65
   8  0.820  0.334  0.049-  85 2.08  69 2.10  64 2.18  61 2.19  56 2.22  73 2.30  11 3.37   3 3.50
                            20 3.51  15 3.52  12 3.65
   9  0.238  0.068  0.057-  62 2.10  86 2.16  67 2.18  70 2.19  75 2.22  58 2.30   6 3.37  17 3.48
                            14 3.50  22 3.52   2 3.52   5 3.65
  10  0.488  0.568  0.057-  63 2.10  87 2.17  68 2.18  71 2.19  76 2.22  59 2.30   7 3.37  18 3.48
                            15 3.50   3 3.52  23 3.52   6 3.65
  11  0.738  0.068  0.057-  64 2.10  69 2.18  88 2.18  72 2.19  77 2.22  60 2.30   8 3.37  19 3.47
                            16 3.50   4 3.52  24 3.53   7 3.65
  12  0.988  0.568  0.057-  65 2.10  66 2.18  89 2.18  73 2.19  74 2.22  61 2.30   5 3.37  13 3.50
                             1 3.52  20 3.52  21 3.53   8 3.65
  13  0.220  0.581  0.068-  51 2.10  66 2.10  79 2.18  54 2.19  71 2.26  90 2.26  74 2.30   2 3.37
                            21 3.49  26 3.50  12 3.50  18 3.50   6 3.52   1 3.65
  14  0.470  0.081  0.068-  52 2.10  67 2.10  80 2.18  55 2.19  72 2.26  91 2.27  75 2.30   3 3.37
                            27 3.48  22 3.49   9 3.50  19 3.52   7 3.52   2 3.65
  15  0.720  0.581  0.068-  53 2.10  68 2.10  81 2.18  56 2.19  73 2.26  92 2.27  76 2.30   4 3.37
                            23 3.49  28 3.50  10 3.50   8 3.52  20 3.54   3 3.65
  16  0.970  0.081  0.068-  50 2.10  69 2.10  78 2.18  57 2.19  70 2.26  93 2.26  77 2.30   1 3.37
                            17 3.50  11 3.50  24 3.50  25 3.50   5 3.52   4 3.65
  17  0.106  0.982  0.171-  94 2.09 110 2.13  82 2.16  70 2.19 106 2.20  93 2.23  86 2.31  32 3.40
                             5 3.46   9 3.48  16 3.50  22 3.53  25 3.54  29 3.67
  18  0.357  0.484  0.171-  95 2.10 111 2.13  83 2.16  71 2.19 107 2.19  90 2.23  87 2.29  29 3.37
                             6 3.48  10 3.48  13 3.50  23 3.52  26 3.54  30 3.65
  19  0.608  0.984  0.171-  96 2.09 112 2.14  84 2.18  72 2.19 108 2.20  91 2.23  88 2.28  30 3.38
                            11 3.47   7 3.48  24 3.49  14 3.52  27 3.52  31 3.69
  20  0.856  0.483  0.173-  97 2.10 113 2.11  85 2.19 109 2.19  92 2.23  73 2.24  89 2.32  31 3.33
                            28 3.49   8 3.51  12 3.52  21 3.53  15 3.54  32 3.63
  21  0.090  0.495  0.183- 114 2.09  98 2.11  97 2.17  90 2.18  74 2.24  89 2.27 102 2.29  25 3.37
                            13 3.49  32 3.51  20 3.53  12 3.53  26 3.62  33 3.64
  22  0.339  0.995  0.182- 115 2.10  99 2.11  94 2.17  91 2.19  75 2.23 103 2.26  86 2.27  26 3.38
                            14 3.49  29 3.51   9 3.52  17 3.53  34 3.61  27 3.62
  23  0.589  0.493  0.182- 100 2.08 116 2.13  95 2.16  92 2.18  76 2.23  87 2.29 104 2.30  27 3.36
                            15 3.49  35 3.50  18 3.52  10 3.52  30 3.56  28 3.69
  24  0.839  0.995  0.183- 117 2.10 101 2.10  96 2.18  93 2.18  77 2.25  88 2.27 105 2.28  28 3.36
                            19 3.49  16 3.50  11 3.53  31 3.53  36 3.60  25 3.65
  25  0.005  0.230  0.191-  78 2.10  97 2.10 121 2.16  98 2.19 105 2.21 106 2.29  93 2.30  21 3.37
                            37 3.45  16 3.50  17 3.54  29 3.55  24 3.65  36 3.65
  26  0.253  0.730  0.191-  94 2.10  79 2.10 102 2.18  99 2.20 118 2.20  90 2.29 107 2.29  22 3.38
                            38 3.46  13 3.50  18 3.54  30 3.54  21 3.62  33 3.65
  27  0.504  0.229  0.191-  80 2.09  95 2.11 119 2.19 100 2.19 103 2.19 108 2.29  91 2.29  23 3.36
                            39 3.47  14 3.48  19 3.52  31 3.59  22 3.62  34 3.65
  28  0.758  0.729  0.191-  81 2.08  96 2.12 101 2.16 120 2.22 109 2.24 104 2.24  92 2.30  24 3.36
                            32 3.48  35 3.49  20 3.49  15 3.50  40 3.60  23 3.69
  29  0.240  0.242  0.201-  98 2.10  83 2.10 122 2.19 103 2.21 111 2.22  86 2.23 106 2.29  18 3.37
                            37 3.41  42 3.50  22 3.51  25 3.55  34 3.63  17 3.67
  30  0.488  0.743  0.199-  99 2.08  84 2.09 112 2.20 123 2.20  87 2.22 104 2.25 107 2.29  19 3.38
                            38 3.44  35 3.48  43 3.50  26 3.54  23 3.56  18 3.65
  31  0.742  0.245  0.203-  85 2.11 100 2.12 113 2.12 105 2.22 124 2.25  88 2.28 108 2.31  20 3.33
                            39 3.45  44 3.53  24 3.53  27 3.59  36 3.64  19 3.69
  32  0.989  0.740  0.203- 101 2.11  82 2.14 110 2.19 102 2.21 125 2.22  89 2.23 109 2.26  17 3.40
                            41 3.46  28 3.48  21 3.51  40 3.54  33 3.63  20 3.63
  33  0.124  0.641  0.314- 142 2.02 126 2.17 138 2.17 114 2.21 125 2.23 118 2.38 102 2.42  45 3.22
                            41 3.47  38 3.54  32 3.63  21 3.64  26 3.65  46 3.71
  34  0.372  0.140  0.313- 143 2.02 127 2.14 139 2.19 115 2.20 122 2.23 119 2.36 103 2.42  46 3.23
                            42 3.49  39 3.53  22 3.61  29 3.63  27 3.65  47 3.66
  35  0.622  0.649  0.304- 140 2.14 123 2.16 104 2.19 116 2.19 120 2.22 128 2.22 144 2.25  49 3.18
                            43 3.41  47 3.44  30 3.48  28 3.49  23 3.50  40 3.60  48 3.70
  36  0.875  0.137  0.314- 145 2.03 129 2.12 141 2.13 117 2.21 124 2.30 105 2.38 121 2.45  48 3.22
                            44 3.39  37 3.54  24 3.60  31 3.64  25 3.65  45 3.77
  37  0.111  0.161  0.312- 130 2.09 121 2.13 129 2.16 106 2.16 122 2.16 134 2.17  29 3.41  25 3.45
                            41 3.45  45 3.51  36 3.54  42 3.58
  38  0.359  0.660  0.313- 131 2.10 126 2.15 118 2.16 107 2.16 135 2.16 123 2.17  42 3.44  30 3.44
                            26 3.46  46 3.53  33 3.54  43 3.59
  39  0.607  0.158  0.314- 136 2.10 132 2.11 127 2.15 108 2.16 124 2.18 119 2.21  43 3.42  31 3.45
                            47 3.46  27 3.47  34 3.53  44 3.67
  40  0.859  0.663  0.322- 146 2.13 133 2.14 137 2.20 125 2.20 120 2.21 128 2.32 109 2.35  49 3.35
                            48 3.45  32 3.54  44 3.56  41 3.58  35 3.60  28 3.60
  41  0.028  0.889  0.324- 110 2.05 137 2.14 138 2.15 129 2.16 130 2.20 125 2.30  37 3.45  32 3.46
                            33 3.47  46 3.50  40 3.58
  42  0.276  0.388  0.325- 111 2.06 139 2.14 126 2.14 134 2.25 131 2.25 122 2.29  38 3.44  34 3.49
                            47 3.50  29 3.50  37 3.58
  43  0.525  0.888  0.325- 112 2.06 140 2.14 127 2.14 132 2.18 135 2.27 123 2.30  35 3.41  39 3.42
                            30 3.50  48 3.56  38 3.59
  44  0.785  0.379  0.332- 141 2.09 147 2.11 133 2.15 113 2.19 124 2.23 128 2.25 136 2.64  49 3.16
                            36 3.39  45 3.42  31 3.53  40 3.56  39 3.67
  45  0.012  0.407  0.336- 142 2.02 114 2.07 133 2.16 141 2.24 134 2.30 121 2.30  33 3.22  44 3.42
                            37 3.51  36 3.77
  46  0.260  0.907  0.336- 143 2.03 115 2.07 130 2.14 138 2.26 118 2.29 135 2.31  34 3.23  41 3.50
                            38 3.53  33 3.71
  47  0.508  0.400  0.334- 116 2.07 136 2.13 131 2.17 119 2.22 139 2.23 144 2.26  35 3.44  39 3.46
                            42 3.50  34 3.66  49 3.89
  48  0.760  0.906  0.337- 145 2.01 117 2.06 132 2.19 137 2.22 120 2.34 140 2.36  36 3.22  40 3.45
                            43 3.56  35 3.70
  49  0.708  0.553  0.412- 147 1.92 146 1.98 144 2.09 128 2.13  44 3.16  35 3.18  40 3.35  47 3.89

  50  0.024  0.173  0.000-  16 2.10   1 2.18
  51  0.274  0.673  0.000-  13 2.10   2 2.18
  52  0.524  0.173  0.000-  14 2.10   3 2.18
  53  0.774  0.673  0.000-  15 2.10   4 2.18
  54  0.215  0.432  0.016-  13 2.19   6 2.22   1 2.30
  55  0.465  0.932  0.016-  14 2.19   7 2.22   2 2.30
  56  0.715  0.432  0.016-  15 2.19   8 2.22   3 2.30
  57  0.965  0.932  0.016-  16 2.19   5 2.22   4 2.30
  58  0.207  0.891  0.025-   5 2.19   2 2.26   9 2.30
  59  0.457  0.391  0.025-   6 2.19   3 2.26  10 2.30
  60  0.707  0.891  0.025-   7 2.19   4 2.26  11 2.30
  61  0.957  0.391  0.025-   8 2.19   1 2.26  12 2.30
  62  0.197  0.226  0.044-   9 2.10   1 2.10   6 2.18
  63  0.447  0.726  0.044-  10 2.10   2 2.10   7 2.18
  64  0.697  0.226  0.044-  11 2.10   3 2.10   8 2.18
  65  0.947  0.726  0.044-  12 2.10   4 2.10   5 2.18
  66  0.111  0.675  0.062-   5 2.10  13 2.10  12 2.18
  67  0.361  0.175  0.062-   6 2.10  14 2.10   9 2.18
  68  0.611  0.675  0.062-   7 2.10  15 2.10  10 2.18
  69  0.861  0.175  0.062-   8 2.10  16 2.10  11 2.18
  70  0.101  0.010  0.081-  17 2.19   9 2.19  16 2.26   5 2.30
  71  0.351  0.510  0.081-  18 2.19  10 2.19  13 2.26   6 2.30
  72  0.601  0.010  0.081-  19 2.19  11 2.19  14 2.26   7 2.30
  73  0.851  0.510  0.081-  12 2.19  20 2.24  15 2.26   8 2.30
  74  0.093  0.470  0.090-   1 2.19  12 2.22  21 2.24  13 2.30
  75  0.343  0.970  0.090-   2 2.19   9 2.22  22 2.23  14 2.30
  76  0.593  0.470  0.090-   3 2.19  10 2.22  23 2.23  15 2.30
  77  0.843  0.970  0.090-   4 2.19  11 2.22  24 2.25  16 2.30
  78  0.034  0.229  0.106-   1 2.10  25 2.10  16 2.18
  79  0.284  0.729  0.106-   2 2.10  26 2.10  13 2.18
  80  0.534  0.229  0.106-  27 2.09   3 2.10  14 2.18
  81  0.784  0.729  0.106-  28 2.08   4 2.10  15 2.18
  82  0.045  0.832  0.134-   5 2.07  32 2.14  17 2.16
  83  0.297  0.334  0.134-   6 2.06  29 2.10  18 2.16
  84  0.546  0.834  0.133-   7 2.06  30 2.09  19 2.18
  85  0.796  0.333  0.134-   8 2.08  31 2.11  20 2.19
  86  0.232  0.093  0.146-   9 2.16  29 2.23  22 2.27  17 2.31
  87  0.482  0.593  0.147-  10 2.17  30 2.22  23 2.29  18 2.29
  88  0.732  0.094  0.147-  11 2.18  24 2.27  19 2.28  31 2.28
  89  0.982  0.593  0.147-  12 2.18  32 2.23  21 2.27  20 2.32
  90  0.226  0.552  0.160-  21 2.18  18 2.23  13 2.26  26 2.29
  91  0.476  0.051  0.161-  22 2.19  19 2.23  14 2.27  27 2.29
  92  0.725  0.552  0.161-  23 2.18  20 2.23  15 2.27  28 2.30
  93  0.975  0.052  0.161-  24 2.18  17 2.23  16 2.26  25 2.30
  94  0.215  0.890  0.181-  17 2.09  26 2.10  22 2.17
  95  0.465  0.390  0.181-  18 2.10  27 2.11  23 2.16
  96  0.715  0.889  0.181-  19 2.09  28 2.12  24 2.18
  97  0.966  0.390  0.182-  20 2.10  25 2.10  21 2.17
  98  0.131  0.335  0.192-  29 2.10  21 2.11  25 2.19
  99  0.379  0.835  0.193-  30 2.08  22 2.11  26 2.20
 100  0.629  0.335  0.194-  23 2.08  31 2.12  27 2.19
 101  0.880  0.836  0.194-  24 2.10  32 2.11  28 2.16
 102  0.118  0.671  0.215-  26 2.18  32 2.21  21 2.29  33 2.42
 103  0.368  0.170  0.213-  27 2.19  29 2.21  22 2.26  34 2.42
 104  0.618  0.671  0.213-  35 2.19  28 2.24  30 2.25  23 2.30
 105  0.868  0.170  0.216-  25 2.21  31 2.22  24 2.28  36 2.38
 106  0.116  0.130  0.224-  37 2.16  17 2.20  29 2.29  25 2.29
 107  0.364  0.631  0.224-  38 2.16  18 2.19  30 2.29  26 2.29
 108  0.615  0.131  0.225-  39 2.16  19 2.20  27 2.29  31 2.31
 109  0.865  0.632  0.225-  20 2.19  28 2.24  32 2.26  40 2.35
 110  0.047  0.893  0.240-  41 2.05  17 2.13  32 2.19
 111  0.298  0.396  0.241-  42 2.06  18 2.13  29 2.22
 112  0.547  0.893  0.240-  43 2.06  19 2.14  30 2.20
 113  0.798  0.393  0.241-  20 2.11  31 2.12  44 2.19
 114  0.071  0.492  0.269-  45 2.07  21 2.09  33 2.21
 115  0.316  0.992  0.268-  46 2.07  22 2.10  34 2.20
 116  0.561  0.494  0.269-  47 2.07  23 2.13  35 2.19
 117  0.810  0.993  0.269-  48 2.06  24 2.10  36 2.21
 118  0.252  0.750  0.283-  38 2.16  26 2.20  46 2.29  33 2.38
 119  0.498  0.250  0.281-  27 2.19  39 2.21  47 2.22  34 2.36
 120  0.749  0.746  0.283-  40 2.21  28 2.22  35 2.22  48 2.34
 121  0.006  0.251  0.281-  37 2.13  25 2.16  45 2.30  36 2.45
 122  0.247  0.214  0.291-  37 2.16  29 2.19  34 2.23  42 2.29
 123  0.494  0.713  0.290-  35 2.16  38 2.17  30 2.20  43 2.30
 124  0.745  0.214  0.296-  39 2.18  44 2.23  31 2.25  36 2.30
 125  0.996  0.711  0.294-  40 2.20  32 2.22  33 2.23  41 2.30
 126  0.240  0.554  0.329-  42 2.14  38 2.15  33 2.17
 127  0.487  0.053  0.327-  34 2.14  43 2.14  39 2.15
 128  0.730  0.544  0.325-  49 2.13  35 2.22  44 2.25  40 2.32
 129  0.991  0.055  0.328-  36 2.12  37 2.16  41 2.16
 130  0.149  0.004  0.330-  37 2.09  46 2.14  41 2.20
 131  0.399  0.505  0.335-  38 2.10  47 2.17  42 2.25
 132  0.644  0.000  0.334-  39 2.11  43 2.18  48 2.19
 133  0.898  0.500  0.328-  40 2.14  44 2.15  45 2.16
 134  0.139  0.321  0.352-  37 2.17  42 2.25  45 2.30
 135  0.387  0.819  0.351-  38 2.16  43 2.27  46 2.31
 136  0.618  0.311  0.355-  39 2.10  47 2.13  44 2.64
 137  0.892  0.838  0.342-  41 2.14  40 2.20  48 2.22
 138  0.134  0.799  0.356-  41 2.15  33 2.17  46 2.26
 139  0.382  0.299  0.356-  42 2.14  34 2.19  47 2.23
 140  0.628  0.794  0.355-  43 2.14  35 2.14  48 2.36
 141  0.893  0.292  0.355-  44 2.09  36 2.13  45 2.24
 142  0.068  0.543  0.375-  33 2.02  45 2.02
 143  0.317  0.043  0.375-  34 2.02  46 2.03
 144  0.580  0.546  0.379-  49 2.09  35 2.25  47 2.26
 145  0.816  0.042  0.375-  48 2.01  36 2.03
 146  0.801  0.675  0.402-  49 1.98  40 2.13
 147  0.763  0.417  0.416-  49 1.92  44 2.11
 
  Warning from LATTYP: Monoclinic adjustement (A1->A3, A2->A1, A3->A2)!
  Warning from LATTYP: Got some problem with cell dimensions!
  Tried to take original basis but could not verify dimensions!
  LATTYP: Found a simple monoclinic cell.
 ALAT       =    18.5584556648
 B/A-ratio  =     1.2917238965
 C/A-ratio  =     1.7011970181
 COS(beta)  =    -0.9496615564
  
  Lattice vectors:
  
 A1 = ( -14.0305058395, -12.1474763861,   0.0000000000)
 A2 = (   0.0000000000,   0.0000000000, -23.9724006653)
 A3 = (  29.1411063110,  12.1474763861,   0.0000000000)


Analysis of symmetry for initial positions (statically):
=====================================================================
 Subroutine PRICEL returns:
 Original cell was already a primitive cell.
 

 Routine SETGRP: Setting up the symmetry group for a 
 simple monoclinic supercell.


 Subroutine GETGRP returns: Found  1 space group operations
 (whereof  1 operations were pure point group operations)
 out of a pool of  4 trial point group operations.


The static configuration has the point symmetry C_1 .


Analysis of symmetry for dynamics (positions and initial velocities):
=====================================================================
 Subroutine PRICEL returns:
 Original cell was already a primitive cell.
 

 Routine SETGRP: Setting up the symmetry group for a 
 simple monoclinic supercell.


 Subroutine GETGRP returns: Found  1 space group operations
 (whereof  1 operations were pure point group operations)
 out of a pool of  4 trial point group operations.


The dynamic configuration has the point symmetry C_1 .


Analysis of constrained symmetry for selective dynamics:
=====================================================================
 Subroutine PRICEL returns:
 Original cell was already a primitive cell.
 

 Routine SETGRP: Setting up the symmetry group for a 
 simple monoclinic supercell.


 Subroutine GETGRP returns: Found  1 space group operations
 (whereof  1 operations were pure point group operations)
 out of a pool of  4 trial point group operations.


The constrained configuration has the point symmetry C_1 .


Analysis of structural, dynamic, and magnetic symmetry:
=====================================================================
 Subroutine PRICEL returns:
 Original cell was already a primitive cell.
 

 Routine SETGRP: Setting up the symmetry group for a 
 simple monoclinic supercell.


 Subroutine GETGRP returns: Found  1 space group operations
 (whereof  1 operations were pure point group operations)
 out of a pool of  4 trial point group operations.


The magnetic configuration has the point symmetry C_1 .


 Subroutine INISYM returns: Found  1 space group operations
 (whereof  1 operations are pure point group operations),
 and found     1 'primitive' translations

 
 
 KPOINTS: Monkhorst Pack                          

Automatic generation of k-mesh.
Space group operators:
 irot       det(A)        alpha          n_x          n_y          n_z        tau_x        tau_y        tau_z
    1     1.000000     0.000000     1.000000     0.000000     0.000000     0.000000     0.000000     0.000000
 
 Subroutine IBZKPT returns following result:
 ===========================================
 
 Found      2 irreducible k-points:
 
 Following reciprocal coordinates:
            Coordinates               Weight
  0.250000  0.250000  0.000000      2.000000
 -0.250000  0.250000  0.000000      2.000000
 
 Following cartesian coordinates:
            Coordinates               Weight
  0.016545  0.022051  0.000000      2.000000
 -0.016545  0.019109  0.000000      2.000000
 


--------------------------------------------------------------------------------------------------------




 Dimension of arrays:
   k-points           NKPTS =      2   k-points in BZ     NKDIM =      2   number of bands    NBANDS=    640
   number of dos      NEDOS =    301   number of ions     NIONS =    147
   non local maximal  LDIM  =      6   non local SUM 2l+1 LMDIM =     18
   total plane-waves  NPLWV = 823200
   max r-space proj   IRMAX =   2561   max aug-charges    IRDMAX=   7978
   dimension x,y,z NGX =    84 NGY =   70 NGZ =  140
   dimension x,y,z NGXF=   168 NGYF=  140 NGZF=  280
   support grid    NGXF=   168 NGYF=  140 NGZF=  280
   ions per type =              49  98
   NGX,Y,Z   is equivalent  to a cutoff of   9.24,  9.54,  9.71 a.u.
   NGXF,Y,Z  is equivalent  to a cutoff of  18.48, 19.08, 19.42 a.u.

 SYSTEM =  mZrO2_n111                              
 POSCAR =  CONTCAR                                 

 Startparameter for this run:
   NWRITE =      2    write-flag & timer
   PREC   = normal    normal or accurate (medium, high low for compatibility)
   ISTART =      1    job   : 0-new  1-cont  2-samecut
   ICHARG =      1    charge: 1-file 2-atom 10-const
   ISPIN  =      2    spin polarized calculation?
   LNONCOLLINEAR =      F non collinear calculations
   LSORBIT =      F    spin-orbit coupling
   INIWAV =      1    electr: 0-lowe 1-rand  2-diag
   LASPH  =      F    aspherical Exc in radial PAW
   METAGGA=      F    non-selfconsistent MetaGGA calc.

 Electronic Relaxation 1
   ENCUT  =  500.0 eV  36.75 Ry    6.06 a.u.  27.55 22.24 43.71*2*pi/ulx,y,z
   ENINI  =  500.0     initial cutoff
   ENAUG  =  605.4 eV  augmentation charge cutoff
   NELM   =    300;   NELMIN=  2; NELMDL=  0     # of ELM steps 
   EDIFF  = 0.1E-05   stopping-criterion for ELM
   LREAL  =      T    real-space projection
   NLSPLINE    = F    spline interpolate recip. space projectors
   LCOMPAT=      F    compatible to vasp.4.4
   GGA_COMPAT  = T    GGA compatible to vasp.4.4-vasp.4.6
   LMAXPAW     = -100 max onsite density
   LMAXMIX     =    2 max onsite mixed and CHGCAR
   VOSKOWN=      0    Vosko Wilk Nusair interpolation
   ROPT   =   -0.00050  -0.00050
 Ionic relaxation
   EDIFFG = -.2E-01   stopping-criterion for IOM
   NSW    =      0    number of steps for IOM
   NBLOCK =      1;   KBLOCK =      1    inner block; outer block 
   IBRION =     -1    ionic relax: 0-MD 1-quasi-New 2-CG
   NFREE  =      1    steps in history (QN), initial steepest desc. (CG)
   ISIF   =      2    stress and relaxation
   IWAVPR =     10    prediction:  0-non 1-charg 2-wave 3-comb
   ISYM   =      2    0-nonsym 1-usesym 2-fastsym
   LCORR  =      T    Harris-Foulkes like correction to forces

   POTIM  = 0.5000    time-step for ionic-motion
   TEIN   =    0.0    initial temperature
   TEBEG  =    0.0;   TEEND  =   0.0 temperature during run
   SMASS  =  -3.00    Nose mass-parameter (am)
   estimated Nose-frequenzy (Omega)   =  0.10E-29 period in steps =****** mass=  -0.522E-26a.u.
   SCALEE = 1.0000    scale energy and forces
   NPACO  =    256;   APACO  = 16.0  distance and # of slots for P.C.
   PSTRESS=    0.0 pullay stress

  Mass of Ions in am
   POMASS =  91.22 16.00
  Ionic Valenz
   ZVAL   =  12.00  6.00
  Atomic Wigner-Seitz radii
   RWIGS  =  -1.00 -1.00
  virtual crystal weights 
   VCA    =   1.00  1.00
   NELECT =    1176.0000    total number of electrons
   NUPDOWN=      -1.0000    fix difference up-down

 DOS related values:
   EMIN   =  10.00;   EMAX   =-10.00  energy-range for DOS
   EFERMI =   0.00
   ISMEAR =     0;   SIGMA  =   0.05  broadening in eV -4-tet -1-fermi 0-gaus

 Electronic relaxation 2 (details)
   IALGO  =     38    algorithm
   LDIAG  =      T    sub-space diagonalisation (order eigenvalues)
   LSUBROT=      F    optimize rotation matrix (better conditioning)
   TURBO    =      0    0=normal 1=particle mesh
   IRESTART =      0    0=no restart 2=restart with 2 vectors
   NREBOOT  =      0    no. of reboots
   NMIN     =      0    reboot dimension
   EREF     =   0.00    reference energy to select bands
   IMIX   =      4    mixing-type and parameters
     AMIX     =   0.40;   BMIX     =  1.00
     AMIX_MAG =   1.60;   BMIX_MAG =  1.00
     AMIN     =   0.10
     WC   =   100.;   INIMIX=   1;  MIXPRE=   1;  MAXMIX= -45

 Intra band minimization:
   WEIMIN = 0.0000     energy-eigenvalue tresh-hold
   EBREAK =  0.39E-09  absolut break condition
   DEPER  =   0.30     relativ break condition  

   TIME   =   0.40     timestep for ELM

  volume/ion in A,a.u.               =      29.93       202.00
  Fermi-wavevector in a.u.,A,eV,Ry     =   1.054510  1.992736 15.129570  1.111992
  Thomas-Fermi vector in A             =   2.189673
 
 Write flags
   LWAVE        =      F    write WAVECAR
   LDOWNSAMPLE  =      F    k-point downsampling of WAVECAR
   LCHARG       =      F    write CHGCAR
   LVTOT        =      F    write LOCPOT, total local potential
   LVHAR        =      F    write LOCPOT, Hartree potential only
   LELF         =      F    write electronic localiz. function (ELF)
   LORBIT       =      0    0 simple, 1 ext, 2 COOP (PROOUT), +10 PAW based schemes


 Dipole corrections
   LMONO  =      F    monopole corrections only (constant potential shift)
   LDIPOL =      F    correct potential (dipole corrections)
   IDIPOL =      3    1-x, 2-y, 3-z, 4-all directions 
   EPSILON=  1.0000000 bulk dielectric constant

 LDA+U is selected, type is set to LDAUTYPE =  2
   angular momentum for each species LDAUL =     2   -1
   U (eV)           for each species LDAUU =   4.0  0.0
   J (eV)           for each species LDAUJ =   0.0  0.0
 Exchange correlation treatment:
   GGA     =    --    GGA type
   LEXCH   =     8    internal setting for exchange type
   VOSKOWN=      0    Vosko Wilk Nusair interpolation
   LHFCALC =     F    Hartree Fock is set to
   LHFONE  =     F    Hartree Fock one center treatment
   AEXX    =    0.0000 exact exchange contribution

 Linear response parameters
   LEPSILON=     F    determine dielectric tensor
   LRPA    =     F    only Hartree local field effects (RPA)
   LNABLA  =     F    use nabla operator in PAW spheres
   LVEL    =     F    velocity operator in full k-point grid
   LINTERFAST=   F  fast interpolation
   KINTER  =     0    interpolate to denser k-point grid
   CSHIFT  =0.1000    complex shift for real part using Kramers Kronig
   OMEGAMAX=  -1.0    maximum frequency
   DEG_THRESHOLD= 0.2000000E-02 threshold for treating states as degnerate
   RTIME   =   -0.100 relaxation time in fs
  (WPLASMAI=    0.000 imaginary part of plasma frequency in eV, 0.658/RTIME)
   DFIELD  = 0.0000000 0.0000000 0.0000000 field for delta impulse in time
 
 Orbital magnetization related:
   ORBITALMAG=     F  switch on orbital magnetization
   LCHIMAG   =     F  perturbation theory with respect to B field
   DQ        =  0.001000  dq finite difference perturbation B field
   LLRAUG    =     F  two centre corrections for induced B field



--------------------------------------------------------------------------------------------------------


 Static calculation
 charge density and potential will be updated during run
 spin polarized calculation
 Variant of blocked Davidson
 Davidson routine will perform the subspace rotation
 perform sub-space diagonalisation
    after iterative eigenvector-optimisation
 modified Broyden-mixing scheme, WC =      100.0
 initial mixing is a Kerker type mixing with AMIX =  0.4000 and BMIX =      1.0000
 Hartree-type preconditioning will be used
 using additional bands           52
 real space projection scheme for non local part
 use partial core corrections
 calculate Harris-corrections to forces 
   (improved forces if not selfconsistent)
 use gradient corrections 
 use of overlap-Matrix (Vanderbilt PP)
 Gauss-broadening in eV      SIGMA  =   0.05


--------------------------------------------------------------------------------------------------------


  energy-cutoff  :      500.00
  volume of cell :     4400.27
      direct lattice vectors                 reciprocal lattice vectors
    15.110600471  0.000000000  0.000000000     0.066178707  0.005884289  0.000000000
    -1.080094632 12.147476386  0.000000000     0.000000000  0.082321625  0.000000000
     0.000000000  0.000000000 23.972400665     0.000000000  0.000000000  0.041714637

  length of vectors
    15.110600471 12.195400238 23.972400665     0.066439793  0.082321625  0.041714637


 
 old parameters found on file WAVECAR:
  energy-cutoff  :      500.00
  volume of cell :     4400.27
      direct lattice vectors                 reciprocal lattice vectors
    15.110600471  0.000000000  0.000000000     0.066178707  0.005884289  0.000000000
    -1.080094632 12.147476386  0.000000000     0.000000000  0.082321625  0.000000000
     0.000000000  0.000000000 23.972400665     0.000000000  0.000000000  0.041714637

  length of vectors

 
 k-points in units of 2pi/SCALE and weight: Monkhorst Pack                          
   0.01654468  0.02205148  0.00000000       0.500
  -0.01654468  0.01910933  0.00000000       0.500
 
 k-points in reciprocal lattice and weights: Monkhorst Pack                          
   0.25000000  0.25000000  0.00000000       0.500
  -0.25000000  0.25000000  0.00000000       0.500
 
 position of ions in fractional coordinates (direct lattice) 
   0.08848000  0.32082999  0.03824000
   0.33847998  0.82083000  0.03824000
   0.58847999  0.32082999  0.03824000
   0.83848001  0.82083000  0.03824000
   0.07020001  0.83354995  0.04873000
   0.32019998  0.33355000  0.04873000
   0.57020004  0.83354995  0.04873000
   0.82020001  0.33355000  0.04873000
   0.23783000  0.06778000  0.05703000
   0.48783004  0.56778001  0.05703000
   0.73783001  0.06778000  0.05703000
   0.98782997  0.56778001  0.05703000
   0.21954999  0.58051001  0.06752000
   0.46955000  0.08051000  0.06752000
   0.71954999  0.58051001  0.06752000
   0.96955000  0.08051000  0.06752000
   0.10583127  0.98239693  0.17088097
   0.35650774  0.48370649  0.17109037
   0.60798408  0.98412432  0.17127722
   0.85612210  0.48318136  0.17321039
   0.08959804  0.49471804  0.18252886
   0.33913269  0.99513310  0.18216701
   0.58929114  0.49255167  0.18205358
   0.83881708  0.99487805  0.18278850
   0.00505112  0.23016505  0.19142279
   0.25321750  0.72990583  0.19132574
   0.50430928  0.22888678  0.19089686
   0.75825854  0.72931539  0.19117312
   0.23995630  0.24188259  0.20063916
   0.48771186  0.74311314  0.19939170
   0.74154365  0.24462182  0.20336398
   0.98864541  0.73968666  0.20285342
   0.12366026  0.64117976  0.31433179
   0.37192165  0.13975320  0.31287174
   0.62177702  0.64912550  0.30388737
   0.87515422  0.13669808  0.31367463
   0.11057608  0.16093023  0.31229000
   0.35870151  0.65952641  0.31270654
   0.60669097  0.15787061  0.31364885
   0.85890980  0.66341547  0.32168189
   0.02810227  0.88874143  0.32434018
   0.27618479  0.38845583  0.32546822
   0.52456862  0.88788170  0.32464558
   0.78509735  0.37913028  0.33191339
   0.01244212  0.40694241  0.33560857
   0.25965869  0.90657951  0.33614081
   0.50781459  0.39998263  0.33436614
   0.76048479  0.90597269  0.33724357
   0.70785292  0.55269174  0.41232314
   0.02440000  0.17254999  0.00000000
   0.27439999  0.67255002  0.00000000
   0.52439999  0.17254999  0.00000000
   0.77439999  0.67255002  0.00000000
   0.21455000  0.43156997  0.01581000
   0.46455001  0.93156996  0.01581000
   0.71455008  0.43156997  0.01581000
   0.96455004  0.93156996  0.01581000
   0.20673000  0.89092997  0.02490000
   0.45673000  0.39092998  0.02490000
   0.70672997  0.89092997  0.02490000
   0.95673004  0.39092998  0.02490000
   0.19748000  0.22610000  0.04418000
   0.44748002  0.72610003  0.04418000
   0.69748003  0.22610000  0.04418000
   0.94747999  0.72610003  0.04418000
   0.11054000  0.67523994  0.06158000
   0.36054002  0.17523999  0.06158000
   0.61053998  0.67523994  0.06158000
   0.86053999  0.17523999  0.06158000
   0.10129000  0.01041000  0.08086000
   0.35129000  0.51041000  0.08086000
   0.60128998  0.01041000  0.08086000
   0.85128994  0.51041000  0.08086000
   0.09348000  0.46976000  0.08995000
   0.34348000  0.96975995  0.08995000
   0.59348001  0.46976000  0.08995000
   0.84347996  0.96975995  0.08995000
   0.03362000  0.22878000  0.10576000
   0.28361999  0.72877998  0.10576000
   0.53361997  0.22878000  0.10576000
   0.78362002  0.72877998  0.10576000
   0.04549132  0.83249786  0.13376056
   0.29700394  0.33368292  0.13352987
   0.54618905  0.83410340  0.13329727
   0.79608045  0.33270986  0.13398411
   0.23163713  0.09340996  0.14618422
   0.48154120  0.59341297  0.14658448
   0.73175204  0.09366089  0.14691093
   0.98196166  0.59326711  0.14695455
   0.22582784  0.55230063  0.16049827
   0.47636432  0.05103970  0.16066109
   0.72531729  0.55174982  0.16078428
   0.97533143  0.05216912  0.16074037
   0.21513014  0.89024885  0.18104855
   0.46502136  0.38964451  0.18074571
   0.71518641  0.88861260  0.18089491
   0.96567229  0.39032526  0.18211960
   0.13057953  0.33501381  0.19187141
   0.37896481  0.83509692  0.19294118
   0.62883370  0.33516366  0.19433672
   0.87990915  0.83610653  0.19371079
   0.11796238  0.67125384  0.21475306
   0.36773776  0.16965938  0.21299592
   0.61814564  0.67088661  0.21326312
   0.86823474  0.16953244  0.21613712
   0.11591318  0.13021551  0.22372798
   0.36439130  0.63091607  0.22397636
   0.61524076  0.13143564  0.22495570
   0.86456737  0.63155651  0.22507956
   0.04737984  0.89308475  0.23979498
   0.29787681  0.39568670  0.24069753
   0.54744905  0.89333063  0.23994503
   0.79761082  0.39255272  0.24091344
   0.07094923  0.49227229  0.26875940
   0.31589863  0.99206879  0.26835114
   0.56131578  0.49422881  0.26893309
   0.81004834  0.99309319  0.26851272
   0.25216740  0.75024227  0.28258254
   0.49803094  0.25043984  0.28125471
   0.74931476  0.74583388  0.28331735
   0.00643760  0.25128009  0.28109874
   0.24653757  0.21399921  0.29083002
   0.49436376  0.71264018  0.28981270
   0.74458316  0.21389317  0.29594531
   0.99571863  0.71068060  0.29399464
   0.24024470  0.55408884  0.32915599
   0.48657523  0.05267514  0.32656224
   0.73022519  0.54423228  0.32488713
   0.99095660  0.05548653  0.32841493
   0.14862064  0.00384030  0.33027755
   0.39944782  0.50499489  0.33520667
   0.64372446  0.00019999  0.33420519
   0.89799697  0.49980945  0.32814593
   0.13907510  0.32066365  0.35164337
   0.38670845  0.81893186  0.35137965
   0.61841749  0.31059731  0.35482987
   0.89153407  0.83776498  0.34211523
   0.13369939  0.79930265  0.35641375
   0.38175674  0.29912785  0.35554595
   0.62760397  0.79385724  0.35456258
   0.89259905  0.29208566  0.35506055
   0.06750698  0.54298993  0.37492362
   0.31723018  0.04271178  0.37451398
   0.57951549  0.54553657  0.37872968
   0.81640357  0.04180596  0.37501537
   0.80148999  0.67473016  0.40238539
   0.76289249  0.41709413  0.41617272
 
 position of ions in cartesian coordinates  (Angst):
   0.99045921  3.89727473  0.91670460
   4.22806168  9.97101307  0.91670460
   8.54575920  3.89727473  0.91670460
  11.78336239  9.97101307  0.91670460
   0.16045142 10.12552833  1.16817511
   4.47814847  4.05179071  1.16817511
   7.71575212 10.12552833  1.16817511
  12.03344917  4.05179071  1.16817511
   3.52054525  0.82335597  1.36714601
   6.75814868  6.89709425  1.36714601
  11.07584571  0.82335597  1.36714601
  14.31344795  6.89709425  1.36714601
   2.69052649  7.05173159  1.61861647
   7.00822400  0.97799331  1.61861647
  10.24582672  7.05173159  1.61861647
  14.56352424  0.97799331  1.61861647
   0.53809244 11.93364346  4.09642710
   4.86459729  5.87581313  4.10144698
   8.12405720 11.95462690  4.10592611
  12.41463745  5.86943415  4.15226897
   0.81953791  6.00957574  4.37565499
   4.04966064 12.08835578  4.36698066
   8.37254052  5.98325976  4.36426140
  11.60046737 12.08525757  4.38187917
  -0.17227457  2.79592446  4.58886372
   3.03790108  8.86651379  4.58653733
   7.37319666  2.78039678  4.57625608
  10.67001227  8.85934147  4.58287873
   3.36462772  2.93826301  4.80980230
   6.56698651  9.02694934  4.77989767
  10.94095510  2.97153776  4.87512274
  14.14009417  8.98532623  4.86288342
   1.17604597  7.78871604  7.53528755
   5.46901285  1.69764869  7.50028677
   8.69430712  7.88523663  7.28490985
  13.07645892  1.66053670  7.51953399
   1.49705109  1.95489621  7.48634105
   4.70784424  8.01158151  7.49632651
   8.99694971  1.91772956  7.51891602
  12.26209131  8.05882371  7.71148708
  -0.53528267 10.79596558  7.77521272
   3.75374894  4.71875807  7.80225454
   6.96755062 10.78552198  7.78253396
  11.45379582  4.60547609  7.95676085
  -0.25152846  4.94332328  8.04534307
   2.94440704 11.01265320  8.05810211
   7.24136430  4.85877951  8.01555898
  10.51284557 11.00528186  8.08453789
  10.09912335  6.71380981  9.88437557
   0.18232835  2.09604693  0.00000000
   3.41993094  8.16978550  0.00000000
   7.73762846  2.09604693  0.00000000
  10.97523117  8.16978550  0.00000000
   2.77584291  5.24248600  0.37900365
   6.01344586 11.31622410  0.37900365
  10.33114434  5.24248600  0.37900365
  13.56874656 11.31622410  0.37900365
   2.16152573 10.82255077  0.59691280
   6.47922326  4.74881268  0.59691280
   9.71682548 10.82255077  0.59691280
  14.03452396  4.74881268  0.59691280
   2.73983193  2.74654436  1.05910064
   5.97743511  8.82028293  1.05910064
  10.29513263  2.74654436  1.05910064
  13.53273487  8.82028293  1.05910064
   0.94100273  8.20246124  1.47622036
   5.25870037  2.12872362  1.47622036
   8.49630260  8.20246124  1.47622036
  12.81400013  2.12872362  1.47622036
   1.51930892  0.12645522  1.93840825
   4.75691175  6.20019341  1.93840825
   9.07460880  0.12645522  1.93840825
  12.31221104  6.20019341  1.93840825
   0.90515363  5.70639848  2.15631746
   4.14275646 11.78013610  2.15631746
   8.46045399  5.70639848  2.15631746
  11.69805622 11.78013610  2.15631746
   0.26091433  2.77909971  2.53532100
   3.49851704  8.85283756  2.53532100
   7.81621408  2.77909971  2.53532100
  11.05381775  8.85283756  2.53532100
  -0.21177528 10.11274805  3.20656164
   4.12749868  4.05340537  3.20103146
   7.35233389 10.13225140  3.19545555
  11.66989551  4.04158514  3.21192065
   3.39928455  1.13469523  3.50438669
   6.63543446  7.20846998  3.51398200
  10.95605013  1.13774346  3.52180774
  14.19724576  7.20669826  3.52285333
   2.81585728  6.70905880  3.84752872
   7.14302325  0.62000349  3.85143198
  10.36403772  6.70236790  3.85438510
  14.68149605  0.63372314  3.85333246
   2.28919263 10.81427689  4.34016832
   6.60589900  4.73319743  4.33290857
   9.84711043 10.79440052  4.33648531
  14.17029996  4.74146693  4.36584408
   1.61128849  4.06957231  4.59961830
   4.82440219 10.14432013  4.62526322
   9.14004639  4.07139268  4.65871764
  12.39288139 10.15658434  4.64371266
   1.05746475  8.15404014  5.14814642
   5.37349015  2.06093332  5.10602360
   8.61593078  8.14957931  5.11242890
  12.93643723  2.05939132  5.18132575
   1.61087262  1.58178987  5.36329672
   4.82472227  7.66403806  5.36925107
   9.15469437  1.59661135  5.39272826
  12.38199130  7.67181774  5.39569741
  -0.24867825 10.84872592  5.74846125
   4.07371843  4.80659484  5.77009763
   7.30740226 10.85171276  5.75205839
  11.62838428  4.76852490  5.77527358
   0.54038475  5.97986598  6.44280804
   3.70188977 12.05113214  6.43302095
   7.94800458  6.00363274  6.44697181
  11.16768219 12.06357605  6.43689462
   3.00006818  9.11355021  6.77418178
   7.25504783  3.04221206  6.74235062
  10.51702473  9.05999940  6.79179696
  -0.17413029  3.05241900  6.73861151
   3.49419125  2.59955040  6.97189386
   6.70041451  8.65677975  6.94750625
  11.02007378  2.59826224  7.09451948
  14.27830404  8.63297577  7.04775733
   3.03177327  6.73078108  7.89065921
   7.29554982  0.63987000  7.82848076
  10.44631877  6.61104873  7.78832438
  14.91401853  0.67402136  7.87289420
   2.24159925  0.04665001  7.91754581
   5.49045415  6.13441348  8.03570858
   9.72684713  0.00242937  8.01170060
  13.02943187  6.07142353  7.86644560
   1.75516118  3.89525411  8.42973576
   4.95887290  9.94795549  8.42341381
   9.00918518  3.77297349  8.50612393
  12.56674964 10.17673031  8.20132346
   1.15695559  9.70951010  8.54409326
   5.44548712  3.63364853  8.52328999
   8.62603197  9.64336207  8.49971623
  13.17222754  3.54810362  8.51165370
   0.43359042  6.59595735  8.98781918
   4.74740580  0.51884031  8.97799907
   8.16759584  6.62689266  9.07905955
  12.29119371  0.50783694  8.99001874
  11.38222262  8.19626874  9.64614369
  11.07726254  5.06664108  9.97665924
 


--------------------------------------------------------------------------------------------------------


 k-point  1 :   0.2500 0.2500 0.0000  plane waves:  111683
 k-point  2 :  -0.2500 0.2500 0.0000  plane waves:  111725

 maximum and minimum number of plane-waves per node :      7001     6957

 maximum number of plane-waves:    111725
 maximum index in each direction: 
   IXMAX=   27   IYMAX=   21   IZMAX=   43
   IXMIN=  -27   IYMIN=  -22   IZMIN=  -43


 real space projection operators:
  total allocation   :      21506.66 KBytes
  max/ min on nodes  :       1576.39       1233.88


 parallel 3D FFT for wavefunctions:
    minimum data exchange during FFTs selected (reduces bandwidth)
 parallel 3D FFT for charge:
    minimum data exchange during FFTs selected (reduces bandwidth)


 total amount of memory used by VASP MPI-rank0    90141. kBytes
=======================================================================

   base      :      30000. kBytes
   nonlr-proj:       8213. kBytes
   fftplans  :       4220. kBytes
   grid      :      11025. kBytes
   one-center:        311. kBytes
   wavefun   :      36372. kBytes
 
     INWAV:  cpu time   37.3773: real time   37.3635
 Broyden mixing: mesh for mixing (old mesh)
   NGX = 55   NGY = 45   NGZ = 87
  (NGX  =168   NGY  =140   NGZ  =280)
  gives a total of 215325 points

 initial charge density was supplied:
 number of electron    1176.0000052 magnetization       0.0000520
 keeping initial charge density in first step


--------------------------------------------------------------------------------------------------------


 Maximum index for non-local projection operator          417
 Maximum index for augmentation-charges          473 (set IRDMAX)


--------------------------------------------------------------------------------------------------------


 First call to EWALD:  gamma=   0.108
 Maximum number of real-space cells 3x 4x 2
 Maximum number of reciprocal cells 3x 2x 4

    FEWALD:  cpu time    0.0152: real time    0.0159


--------------------------------------- Iteration      1(   1)  ---------------------------------------


    POTLOK:  cpu time    0.4580: real time    0.4845
    SETDIJ:  cpu time    0.0752: real time    0.0758
     EDDAV:  cpu time   25.9282: real time   25.8977
       DOS:  cpu time    0.0024: real time    0.0024
    CHARGE:  cpu time    1.0599: real time    1.0603
    MIXING:  cpu time    0.0183: real time    0.0201
    --------------------------------------------
      LOOP:  cpu time   27.5424: real time   27.5412

 eigenvalue-minimisations  :  6352
 total energy-change (2. order) :-0.1272103E+04  (-0.1263526E+00)
 number of electron    1176.0000052 magnetization       0.0000467
 augmentation part       73.1237965 magnetization      -0.0000666

 Broyden mixing:
  rms(total) = 0.95934E-01    rms(broyden)= 0.95855E-01
  rms(prec ) = 0.97105E-01
  weight for this iteration     100.00

 Free energy of the ion-electron system (eV)
  ---------------------------------------------------
  alpha Z        PSCENC =      2056.52944919
  Ewald energy   TEWEN  =    401898.01676188
  -Hartree energ DENC   =   -497748.89655938
  -exchange      EXHF   =         0.00000000
  -V(xc)+E(xc)   XCENC  =      5215.66061704
  PAW double counting   =    127991.04037162  -127308.31049734
  entropy T*S    EENTRO =        -0.00000000
  eigenvalues    EBANDS =    -18673.70911572
  atomic energy  EATOM  =    105297.56570698
  Solvation  Ediel_sol  =         0.00000000
  ---------------------------------------------------
  free energy    TOTEN  =     -1272.10326572 eV

  energy without entropy =    -1272.10326572  energy(sigma->0) =    -1272.10326572


--------------------------------------------------------------------------------------------------------




--------------------------------------- Iteration      1(   2)  ---------------------------------------


    POTLOK:  cpu time    0.4167: real time    0.4417
    SETDIJ:  cpu time    0.0738: real time    0.0737
     EDDAV:  cpu time   25.8710: real time   25.8233
       DOS:  cpu time    0.0020: real time    0.0020
    CHARGE:  cpu time    1.0549: real time    1.0539
    MIXING:  cpu time    0.0102: real time    0.0124
    --------------------------------------------
      LOOP:  cpu time   27.4285: real time   27.4070

 eigenvalue-minimisations  :  6272
 total energy-change (2. order) :-0.1746509E+01  (-0.1128058E+00)
 number of electron    1176.0000052 magnetization       0.0000432
 augmentation part       73.0469026 magnetization      -0.0000264

 Broyden mixing:
  rms(total) = 0.40245E-01    rms(broyden)= 0.40128E-01
  rms(prec ) = 0.42244E-01
  weight for this iteration     100.00

 eigenvalues of (default mixing * dielectric matrix)
  average eigenvalue GAMMA=   0.7389
  0.7389

 Free energy of the ion-electron system (eV)
  ---------------------------------------------------
  alpha Z        PSCENC =      2056.52944919
  Ewald energy   TEWEN  =    401898.01676188
  -Hartree energ DENC   =   -497750.71963786
  -exchange      EXHF   =         0.00000000
  -V(xc)+E(xc)   XCENC  =      5215.75138181
  PAW double counting   =    127844.90421634  -127161.11590589
  entropy T*S    EENTRO =        -0.00000000
  eigenvalues    EBANDS =    -18674.78174725
  atomic energy  EATOM  =    105297.56570698
  Solvation  Ediel_sol  =         0.00000000
  ---------------------------------------------------
  free energy    TOTEN  =     -1273.84977479 eV

  energy without entropy =    -1273.84977479  energy(sigma->0) =    -1273.84977479


--------------------------------------------------------------------------------------------------------




--------------------------------------- Iteration      1(   3)  ---------------------------------------


    POTLOK:  cpu time    0.4168: real time    0.4444
    SETDIJ:  cpu time    0.0734: real time    0.0733
     EDDAV:  cpu time   27.9080: real time   27.8596
       DOS:  cpu time    0.0020: real time    0.0020
    CHARGE:  cpu time    1.0636: real time    1.0625
    MIXING:  cpu time    0.0098: real time    0.0098
    --------------------------------------------
      LOOP:  cpu time   29.4736: real time   29.4516

 eigenvalue-minimisations  :  6912
 total energy-change (2. order) :-0.9919047E-02  (-0.3839985E-02)
 number of electron    1176.0000052 magnetization       0.0000409
 augmentation part       73.0776519 magnetization       0.0000104

 Broyden mixing:
  rms(total) = 0.27740E-01    rms(broyden)= 0.27723E-01
  rms(prec ) = 0.28146E-01
  weight for this iteration     100.00

 eigenvalues of (default mixing * dielectric matrix)
  average eigenvalue GAMMA=   0.6965
  0.6965  0.6965

 Free energy of the ion-electron system (eV)
  ---------------------------------------------------
  alpha Z        PSCENC =      2056.52944919
  Ewald energy   TEWEN  =    401898.01676188
  -Hartree energ DENC   =   -497748.11453267
  -exchange      EXHF   =         0.00000000
  -V(xc)+E(xc)   XCENC  =      5215.56445165
  PAW double counting   =    127874.09863630  -127189.57535299
  entropy T*S    EENTRO =        -0.00000000
  eigenvalues    EBANDS =    -18677.94481418
  atomic energy  EATOM  =    105297.56570698
  Solvation  Ediel_sol  =         0.00000000
  ---------------------------------------------------
  free energy    TOTEN  =     -1273.85969384 eV

  energy without entropy =    -1273.85969384  energy(sigma->0) =    -1273.85969384


--------------------------------------------------------------------------------------------------------




--------------------------------------- Iteration      1(   4)  ---------------------------------------


    POTLOK:  cpu time    0.4301: real time    0.4421
    SETDIJ:  cpu time    0.0733: real time    0.0732
     EDDAV:  cpu time   24.0097: real time   23.9687
       DOS:  cpu time    0.0020: real time    0.0020
    CHARGE:  cpu time    1.0267: real time    1.0257
    MIXING:  cpu time    0.0087: real time    0.0091
    --------------------------------------------
      LOOP:  cpu time   25.5504: real time   25.5208

 eigenvalue-minimisations  :  5696
 total energy-change (2. order) :-0.3137429E-04  (-0.1999722E-03)
 number of electron    1176.0000052 magnetization       0.0000391
 augmentation part       73.0743189 magnetization       0.0000212

 Broyden mixing:
  rms(total) = 0.22461E-01    rms(broyden)= 0.22460E-01
  rms(prec ) = 0.22750E-01
  weight for this iteration     100.00

 eigenvalues of (default mixing * dielectric matrix)
  average eigenvalue GAMMA=   0.6858
  0.7722  0.7722  0.5130

 Free energy of the ion-electron system (eV)
  ---------------------------------------------------
  alpha Z        PSCENC =      2056.52944919
  Ewald energy   TEWEN  =    401898.01676188
  -Hartree energ DENC   =   -497748.73480744
  -exchange      EXHF   =         0.00000000
  -V(xc)+E(xc)   XCENC  =      5215.62879068
  PAW double counting   =    127903.33552606  -127218.75655557
  entropy T*S    EENTRO =        -0.00000000
  eigenvalues    EBANDS =    -18677.44459701
  atomic energy  EATOM  =    105297.56570698
  Solvation  Ediel_sol  =         0.00000000
  ---------------------------------------------------
  free energy    TOTEN  =     -1273.85972521 eV

  energy without entropy =    -1273.85972521  energy(sigma->0) =    -1273.85972521


--------------------------------------------------------------------------------------------------------




--------------------------------------- Iteration      1(   5)  ---------------------------------------


    POTLOK:  cpu time    0.4130: real time    0.4421
    SETDIJ:  cpu time    0.0738: real time    0.0737
     EDDAV:  cpu time   27.9074: real time   27.8596
       DOS:  cpu time    0.0021: real time    0.0021
    CHARGE:  cpu time    1.0663: real time    1.0651
    MIXING:  cpu time    0.0089: real time    0.0089
    --------------------------------------------
      LOOP:  cpu time   29.4716: real time   29.4516

 eigenvalue-minimisations  :  6912
 total energy-change (2. order) :-0.8587827E-05  (-0.1854513E-04)
 number of electron    1176.0000052 magnetization       0.0000372
 augmentation part       73.0805179 magnetization       0.0000236

 Broyden mixing:
  rms(total) = 0.18976E-01    rms(broyden)= 0.18976E-01
  rms(prec ) = 0.19220E-01
  weight for this iteration     100.00

 eigenvalues of (default mixing * dielectric matrix)
  average eigenvalue GAMMA=   0.7323
  0.9147  0.9147  0.5500  0.5500

 Free energy of the ion-electron system (eV)
  ---------------------------------------------------
  alpha Z        PSCENC =      2056.52944919
  Ewald energy   TEWEN  =    401898.01676188
  -Hartree energ DENC   =   -497748.75749991
  -exchange      EXHF   =         0.00000000
  -V(xc)+E(xc)   XCENC  =      5215.63259482
  PAW double counting   =    127920.97755076  -127236.36226021
  entropy T*S    EENTRO =        -0.00000000
  eigenvalues    EBANDS =    -18677.46203732
  atomic energy  EATOM  =    105297.56570698
  Solvation  Ediel_sol  =         0.00000000
  ---------------------------------------------------
  free energy    TOTEN  =     -1273.85973380 eV

  energy without entropy =    -1273.85973380  energy(sigma->0) =    -1273.85973380


--------------------------------------------------------------------------------------------------------




--------------------------------------- Iteration      1(   6)  ---------------------------------------


    POTLOK:  cpu time    0.4394: real time    0.4396
    SETDIJ:  cpu time    0.0738: real time    0.0737
     EDDAV:  cpu time   27.2350: real time   27.1880
       DOS:  cpu time    0.0021: real time    0.0021
    CHARGE:  cpu time    1.0276: real time    1.0268
    MIXING:  cpu time    0.0096: real time    0.0095
    --------------------------------------------
      LOOP:  cpu time   28.7873: real time   28.7396

 eigenvalue-minimisations  :  6720
 total energy-change (2. order) :-0.1674533E-04  (-0.2098770E-05)
 number of electron    1176.0000052 magnetization       0.0000345
 augmentation part       73.0818564 magnetization       0.0000235

 Broyden mixing:
  rms(total) = 0.16303E-01    rms(broyden)= 0.16303E-01
  rms(prec ) = 0.16525E-01
  weight for this iteration     100.00

 eigenvalues of (default mixing * dielectric matrix)
  average eigenvalue GAMMA=   0.8061
  1.1457  1.1457  0.5256  0.6068  0.6068

 Free energy of the ion-electron system (eV)
  ---------------------------------------------------
  alpha Z        PSCENC =      2056.52944919
  Ewald energy   TEWEN  =    401898.01676188
  -Hartree energ DENC   =   -497748.83883689
  -exchange      EXHF   =         0.00000000
  -V(xc)+E(xc)   XCENC  =      5215.64088262
  PAW double counting   =    127935.96391641  -127251.33820679
  entropy T*S    EENTRO =        -0.00000000
  eigenvalues    EBANDS =    -18677.39942394
  atomic energy  EATOM  =    105297.56570698
  Solvation  Ediel_sol  =         0.00000000
  ---------------------------------------------------
  free energy    TOTEN  =     -1273.85975055 eV

  energy without entropy =    -1273.85975055  energy(sigma->0) =    -1273.85975055


--------------------------------------------------------------------------------------------------------




--------------------------------------- Iteration      1(   7)  ---------------------------------------


    POTLOK:  cpu time    0.4176: real time    0.4471
    SETDIJ:  cpu time    0.0736: real time    0.0736
     EDDAV:  cpu time   27.2909: real time   27.2439
       DOS:  cpu time    0.0021: real time    0.0021
    CHARGE:  cpu time    1.0594: real time    1.0583
    MIXING:  cpu time    0.0100: real time    0.0100
    --------------------------------------------
      LOOP:  cpu time   28.8537: real time   28.8350

 eigenvalue-minimisations  :  6656
 total energy-change (2. order) :-0.1157293E-04  (-0.2325301E-05)
 number of electron    1176.0000052 magnetization       0.0000323
 augmentation part       73.0831028 magnetization       0.0000239

 Broyden mixing:
  rms(total) = 0.12890E-01    rms(broyden)= 0.12890E-01
  rms(prec ) = 0.13064E-01
  weight for this iteration     100.00

 eigenvalues of (default mixing * dielectric matrix)
  average eigenvalue GAMMA=   0.8548
  1.3377  1.3377  0.6816  0.6816  0.5451  0.5451

 Free energy of the ion-electron system (eV)
  ---------------------------------------------------
  alpha Z        PSCENC =      2056.52944919
  Ewald energy   TEWEN  =    401898.01676188
  -Hartree energ DENC   =   -497748.83322468
  -exchange      EXHF   =         0.00000000
  -V(xc)+E(xc)   XCENC  =      5215.64651671
  PAW double counting   =    127954.08329607  -127269.44471314
  entropy T*S    EENTRO =        -0.00000000
  eigenvalues    EBANDS =    -18677.42355513
  atomic energy  EATOM  =    105297.56570698
  Solvation  Ediel_sol  =         0.00000000
  ---------------------------------------------------
  free energy    TOTEN  =     -1273.85976212 eV

  energy without entropy =    -1273.85976212  energy(sigma->0) =    -1273.85976212


--------------------------------------------------------------------------------------------------------




--------------------------------------- Iteration      1(   8)  ---------------------------------------


    POTLOK:  cpu time    0.4182: real time    0.4460
    SETDIJ:  cpu time    0.0736: real time    0.0736
     EDDAV:  cpu time   25.7951: real time   25.7537
       DOS:  cpu time    0.0020: real time    0.0020
    CHARGE:  cpu time    1.0621: real time    1.0609
    MIXING:  cpu time    0.0104: real time    0.0104
    --------------------------------------------
      LOOP:  cpu time   27.3614: real time   27.3467

 eigenvalue-minimisations  :  6144
 total energy-change (2. order) :-0.7392693E-05  (-0.1527599E-05)
 number of electron    1176.0000052 magnetization       0.0000302
 augmentation part       73.0847817 magnetization       0.0000231

 Broyden mixing:
  rms(total) = 0.10734E-01    rms(broyden)= 0.10734E-01
  rms(prec ) = 0.10871E-01
  weight for this iteration     100.00

 eigenvalues of (default mixing * dielectric matrix)
  average eigenvalue GAMMA=   0.9063
  1.5681  1.5681  0.7625  0.7625  0.5262  0.5782  0.5782

 Free energy of the ion-electron system (eV)
  ---------------------------------------------------
  alpha Z        PSCENC =      2056.52944919
  Ewald energy   TEWEN  =    401898.01676188
  -Hartree energ DENC   =   -497748.82570922
  -exchange      EXHF   =         0.00000000
  -V(xc)+E(xc)   XCENC  =      5215.64939546
  PAW double counting   =    127965.70975172  -127281.06221806
  entropy T*S    EENTRO =        -0.00000000
  eigenvalues    EBANDS =    -18677.44290747
  atomic energy  EATOM  =    105297.56570698
  Solvation  Ediel_sol  =         0.00000000
  ---------------------------------------------------
  free energy    TOTEN  =     -1273.85976951 eV

  energy without entropy =    -1273.85976951  energy(sigma->0) =    -1273.85976951


--------------------------------------------------------------------------------------------------------




--------------------------------------- Iteration      1(   9)  ---------------------------------------


    POTLOK:  cpu time    0.4365: real time    0.4423
    SETDIJ:  cpu time    0.0733: real time    0.0733
     EDDAV:  cpu time   18.6827: real time   18.6458
       DOS:  cpu time    0.0022: real time    0.0022
    CHARGE:  cpu time    1.0646: real time    1.0637
    MIXING:  cpu time    0.0110: real time    0.0110
    --------------------------------------------
      LOOP:  cpu time   20.2702: real time   20.2383

 eigenvalue-minimisations  :  3904
 total energy-change (2. order) :-0.5700102E-05  (-0.3469748E-06)
 number of electron    1176.0000052 magnetization       0.0000244
 augmentation part       73.0855099 magnetization       0.0000181

 Broyden mixing:
  rms(total) = 0.92720E-02    rms(broyden)= 0.92720E-02
  rms(prec ) = 0.93933E-02
  weight for this iteration     100.00

 eigenvalues of (default mixing * dielectric matrix)
  average eigenvalue GAMMA=   1.0645
  2.0959  2.0959  0.9226  0.9226  0.6612  0.6612  0.5782  0.5782

 Free energy of the ion-electron system (eV)
  ---------------------------------------------------
  alpha Z        PSCENC =      2056.52944919
  Ewald energy   TEWEN  =    401898.01676188
  -Hartree energ DENC   =   -497748.80967416
  -exchange      EXHF   =         0.00000000
  -V(xc)+E(xc)   XCENC  =      5215.65055824
  PAW double counting   =    127973.69497065  -127289.04643620
  entropy T*S    EENTRO =        -0.00000000
  eigenvalues    EBANDS =    -18677.46111180
  atomic energy  EATOM  =    105297.56570698
  Solvation  Ediel_sol  =         0.00000000
  ---------------------------------------------------
  free energy    TOTEN  =     -1273.85977521 eV

  energy without entropy =    -1273.85977521  energy(sigma->0) =    -1273.85977521


--------------------------------------------------------------------------------------------------------




--------------------------------------- Iteration      1(  10)  ---------------------------------------


    POTLOK:  cpu time    0.4318: real time    0.4422
    SETDIJ:  cpu time    0.0731: real time    0.0731
     EDDAV:  cpu time   26.0991: real time   26.0541
       DOS:  cpu time    0.0023: real time    0.0022
    CHARGE:  cpu time    1.0603: real time    1.0592
    MIXING:  cpu time    0.0117: real time    0.0117
    --------------------------------------------
      LOOP:  cpu time   27.6783: real time   27.6424

 eigenvalue-minimisations  :  6336
 total energy-change (2. order) :-0.8621922E-05  (-0.2862345E-05)
 number of electron    1176.0000052 magnetization       0.0000190
 augmentation part       73.0868350 magnetization       0.0000152

 Broyden mixing:
  rms(total) = 0.51802E-02    rms(broyden)= 0.51801E-02
  rms(prec ) = 0.52507E-02
  weight for this iteration     100.00

 eigenvalues of (default mixing * dielectric matrix)
  average eigenvalue GAMMA=   1.1210
  2.4112  2.4112  1.0603  1.0603  0.6813  0.6813  0.5876  0.5978  0.5978

 Free energy of the ion-electron system (eV)
  ---------------------------------------------------
  alpha Z        PSCENC =      2056.52944919
  Ewald energy   TEWEN  =    401898.01676188
  -Hartree energ DENC   =   -497748.76829070
  -exchange      EXHF   =         0.00000000
  -V(xc)+E(xc)   XCENC  =      5215.65447980
  PAW double counting   =    127995.36338266  -127310.70550793
  entropy T*S    EENTRO =        -0.00000000
  eigenvalues    EBANDS =    -18677.51576572
  atomic energy  EATOM  =    105297.56570698
  Solvation  Ediel_sol  =         0.00000000
  ---------------------------------------------------
  free energy    TOTEN  =     -1273.85978383 eV

  energy without entropy =    -1273.85978383  energy(sigma->0) =    -1273.85978383


--------------------------------------------------------------------------------------------------------




--------------------------------------- Iteration      1(  11)  ---------------------------------------


    POTLOK:  cpu time    0.4322: real time    0.4435
    SETDIJ:  cpu time    0.0734: real time    0.0734
     EDDAV:  cpu time   27.6576: real time   27.6168
       DOS:  cpu time    0.0021: real time    0.0021
    CHARGE:  cpu time    1.0603: real time    1.0592
    MIXING:  cpu time    0.0120: real time    0.0120
    --------------------------------------------
      LOOP:  cpu time   29.2375: real time   29.2069

 eigenvalue-minimisations  :  6848
 total energy-change (2. order) :-0.5741676E-05  (-0.2469483E-05)
 number of electron    1176.0000052 magnetization       0.0000167
 augmentation part       73.0887829 magnetization       0.0000153

 Broyden mixing:
  rms(total) = 0.19327E-02    rms(broyden)= 0.19325E-02
  rms(prec ) = 0.19554E-02
  weight for this iteration     100.00

 eigenvalues of (default mixing * dielectric matrix)
  average eigenvalue GAMMA=   1.1412
  2.6458  2.6458  1.1377  1.1377  0.6871  0.6871  0.6483  0.6483  0.5872  0.5872

 Free energy of the ion-electron system (eV)
  ---------------------------------------------------
  alpha Z        PSCENC =      2056.52944919
  Ewald energy   TEWEN  =    401898.01676188
  -Hartree energ DENC   =   -497748.75622621
  -exchange      EXHF   =         0.00000000
  -V(xc)+E(xc)   XCENC  =      5215.65886539
  PAW double counting   =    128013.00746217  -127328.33705850
  entropy T*S    EENTRO =        -0.00000000
  eigenvalues    EBANDS =    -18677.54475048
  atomic energy  EATOM  =    105297.56570698
  Solvation  Ediel_sol  =         0.00000000
  ---------------------------------------------------
  free energy    TOTEN  =     -1273.85978958 eV

  energy without entropy =    -1273.85978958  energy(sigma->0) =    -1273.85978958


--------------------------------------------------------------------------------------------------------




--------------------------------------- Iteration      1(  12)  ---------------------------------------


    POTLOK:  cpu time    0.4305: real time    0.4417
    SETDIJ:  cpu time    0.0732: real time    0.0732
     EDDAV:  cpu time   17.6074: real time   17.5690
       DOS:  cpu time    0.0022: real time    0.0022
    CHARGE:  cpu time    0.9881: real time    0.9869
    MIXING:  cpu time    0.0128: real time    0.0128
    --------------------------------------------
      LOOP:  cpu time   19.1140: real time   19.0857

 eigenvalue-minimisations  :  3520
 total energy-change (2. order) :-0.1144319E-05  (-0.2039749E-06)
 number of electron    1176.0000052 magnetization       0.0000145
 augmentation part       73.0893624 magnetization       0.0000133

 Broyden mixing:
  rms(total) = 0.14147E-02    rms(broyden)= 0.14146E-02
  rms(prec ) = 0.14352E-02
  weight for this iteration     100.00

 eigenvalues of (default mixing * dielectric matrix)
  average eigenvalue GAMMA=   1.1464
  2.7264  2.7264  1.2563  1.2563  0.7436  0.7436  0.5982  0.6318  0.6318  0.6482
  0.6482

 Free energy of the ion-electron system (eV)
  ---------------------------------------------------
  alpha Z        PSCENC =      2056.52944919
  Ewald energy   TEWEN  =    401898.01676188
  -Hartree energ DENC   =   -497748.75468227
  -exchange      EXHF   =         0.00000000
  -V(xc)+E(xc)   XCENC  =      5215.65965218
  PAW double counting   =    128015.91140830  -127331.23950901
  entropy T*S    EENTRO =        -0.00000000
  eigenvalues    EBANDS =    -18677.54857798
  atomic energy  EATOM  =    105297.56570698
  Solvation  Ediel_sol  =         0.00000000
  ---------------------------------------------------
  free energy    TOTEN  =     -1273.85979072 eV

  energy without entropy =    -1273.85979072  energy(sigma->0) =    -1273.85979072


--------------------------------------------------------------------------------------------------------




--------------------------------------- Iteration      1(  13)  ---------------------------------------


    POTLOK:  cpu time    0.4160: real time    0.4472
    SETDIJ:  cpu time    0.0733: real time    0.0733
     EDDAV:  cpu time   16.7027: real time   16.6650
       DOS:  cpu time    0.0021: real time    0.0021
    --------------------------------------------
      LOOP:  cpu time   17.1942: real time   17.1877

 eigenvalue-minimisations  :  3232
 total energy-change (2. order) :-0.4138856E-06  (-0.1254810E-06)
 number of electron    1176.0000052 magnetization       0.0000145
 augmentation part       73.0893624 magnetization       0.0000133

 Free energy of the ion-electron system (eV)
  ---------------------------------------------------
  alpha Z        PSCENC =      2056.52944919
  Ewald energy   TEWEN  =    401898.01676188
  -Hartree energ DENC   =   -497748.74350311
  -exchange      EXHF   =         0.00000000
  -V(xc)+E(xc)   XCENC  =      5215.66033202
  PAW double counting   =    128019.50899051  -127334.83354444
  entropy T*S    EENTRO =        -0.00000000
  eigenvalues    EBANDS =    -18677.56398417
  atomic energy  EATOM  =    105297.56570698
  Solvation  Ediel_sol  =         0.00000000
  ---------------------------------------------------
  free energy    TOTEN  =     -1273.85979113 eV

  energy without entropy =    -1273.85979113  energy(sigma->0) =    -1273.85979113


--------------------------------------------------------------------------------------------------------




 average (electrostatic) potential at core
  the test charge radii are     1.0638  0.7215
  (the norm of the test charge is              1.0000)
       1 -84.9613       2 -85.0060       3 -85.0213       4 -84.9831       5 -85.3036
       6 -85.3558       7 -85.3619       8 -85.3108       9 -85.8589      10 -85.9215
      11 -85.8553      12 -85.8136      13 -84.4673      14 -84.5051      15 -84.4775
      16 -84.4471      17 -85.2143      18 -85.2848      19 -85.2879      20 -85.1338
      21 -85.1025      22 -85.1743      23 -85.2866      24 -85.1496      25 -85.0364
      26 -85.1202      27 -85.1081      28 -85.0861      29 -85.2922      30 -85.3678
      31 -85.2717      32 -85.2507      33 -84.8544      34 -84.9469      35 -85.3512
      36 -84.8467      37 -85.1334      38 -85.2497      39 -85.1485      40 -85.1639
      41 -85.0971      42 -85.4720      43 -85.4165      44 -85.0316      45 -84.9131
      46 -85.0331      47 -85.4218      48 -85.0758      49 -84.8140      50 -72.8388
      51 -72.8696      52 -72.8921      53 -72.8585      54 -74.0909      55 -74.1196
      56 -74.0916      57 -74.0678      58 -74.4539      59 -74.4954      60 -74.4616
      61 -74.4151      62 -74.9153      63 -74.9602      64 -74.9010      65 -74.8712
      66 -74.9173      67 -74.9710      68 -74.9825      69 -74.9233      70 -75.0596
      71 -75.0932      72 -75.0708      73 -74.9005      74 -75.0303      75 -75.1069
      76 -75.1676      77 -75.0461      78 -74.4887      79 -74.5481      80 -74.5960
      81 -74.5750      82 -74.8634      83 -75.0457      84 -75.0868      85 -74.8892
      86 -75.4023      87 -75.4949      88 -75.3403      89 -75.2937      90 -75.0911
      91 -75.0918      92 -75.0690      93 -75.0427      94 -74.7574      95 -74.7894
      96 -74.7121      97 -74.6881      98 -74.6041      99 -74.7424     100 -74.6914
     101 -74.6537     102 -74.8597     103 -74.9111     104 -75.2519     105 -74.8965
     106 -75.3939     107 -75.4886     108 -75.4304     109 -75.0495     110 -74.9473
     111 -74.9975     112 -75.0169     113 -74.5347     114 -74.7453     115 -74.8350
     116 -74.9988     117 -74.7684     118 -74.8901     119 -74.9895     120 -75.0455
     121 -74.7374     122 -75.2167     123 -75.4497     124 -75.1454     125 -74.9768
     126 -74.7175     127 -74.7683     128 -75.3117     129 -74.6568     130 -74.4303
     131 -74.5371     132 -74.4687     133 -74.3253     134 -74.5044     135 -74.5848
     136 -74.4090     137 -74.2501     138 -74.4679     139 -74.6951     140 -74.6629
     141 -74.5390     142 -73.7775     143 -73.8560     144 -74.7869     145 -73.8371
     146 -74.3396     147 -74.4068
 
 
 
 E-fermi :  -0.1613     XC(G=0):  -5.1698     alpha+bet : -5.8000


 spin component 1

 k-point     1 :       0.2500    0.2500    0.0000
  band No.  band energies     occupation 
      1     -50.8095      1.00000
      2     -50.7487      1.00000
      3     -50.7422      1.00000
      4     -50.6992      1.00000
      5     -50.3645      1.00000
      6     -50.3224      1.00000
      7     -50.3115      1.00000
      8     -50.2949      1.00000
      9     -50.2731      1.00000
     10     -50.2688      1.00000
     11     -50.2622      1.00000
     12     -50.2178      1.00000
     13     -50.2120      1.00000
     14     -50.2080      1.00000
     15     -50.2067      1.00000
     16     -50.2058      1.00000
     17     -50.1995      1.00000
     18     -50.1886      1.00000
     19     -50.1806      1.00000
     20     -50.1588      1.00000
     21     -50.1357      1.00000
     22     -50.0950      1.00000
     23     -50.0875      1.00000
     24     -50.0766      1.00000
     25     -50.0670      1.00000
     26     -50.0530      1.00000
     27     -50.0492      1.00000
     28     -50.0375      1.00000
     29     -50.0291      1.00000
     30     -50.0220      1.00000
     31     -50.0136      1.00000
     32     -50.0064      1.00000
     33     -49.9826      1.00000
     34     -49.9546      1.00000
     35     -49.9487      1.00000
     36     -49.9469      1.00000
     37     -49.9124      1.00000
     38     -49.8974      1.00000
     39     -49.8878      1.00000
     40     -49.8738      1.00000
     41     -49.8619      1.00000
     42     -49.8525      1.00000
     43     -49.8331      1.00000
     44     -49.7658      1.00000
     45     -49.7647      1.00000
     46     -49.4391      1.00000
     47     -49.4105      1.00000
     48     -49.4022      1.00000
     49     -49.3810      1.00000
     50     -29.0071      1.00000
     51     -28.9472      1.00000
     52     -28.9342      1.00000
     53     -28.8829      1.00000
     54     -28.8135      1.00000
     55     -28.7753      1.00000
     56     -28.7574      1.00000
     57     -28.7408      1.00000
     58     -28.7148      1.00000
     59     -28.7062      1.00000
     60     -28.6883      1.00000
     61     -28.6615      1.00000
     62     -28.6515      1.00000
     63     -28.6169      1.00000
     64     -28.5825      1.00000
     65     -28.5660      1.00000
[...]
   -.709E+01 0.606E+02 -.349E+03   0.810E+01 -.632E+02 0.348E+03   -.101E+01 0.261E+01 0.533E+00   0.191E-03 -.329E-03 -.135E-03
   -.253E+02 0.549E+02 -.352E+03   0.258E+02 -.581E+02 0.357E+03   -.495E+00 0.324E+01 -.476E+01   0.322E-03 -.131E-03 0.144E-03
   -.255E+02 -.673E+02 -.505E+03   0.267E+02 0.707E+02 0.504E+03   -.116E+01 -.342E+01 0.102E+01   -.189E-03 0.894E-04 -.281E-05
   -.403E+01 -.582E+02 -.525E+03   0.499E+01 0.613E+02 0.525E+03   -.964E+00 -.318E+01 0.770E+00   -.261E-03 -.108E-03 -.105E-03
   0.710E+00 -.753E+02 -.505E+03   0.766E+00 0.787E+02 0.504E+03   -.148E+01 -.343E+01 0.813E+00   -.316E-05 0.237E-04 -.951E-04
   -.942E+01 -.499E+02 -.504E+03   0.986E+01 0.550E+02 0.508E+03   -.432E+00 -.513E+01 -.449E+01   0.168E-03 0.391E-03 -.287E-03
   -.340E+02 0.453E+02 -.740E+03   0.346E+02 -.468E+02 0.737E+03   -.543E+00 0.146E+01 0.254E+01   -.262E-03 -.543E-03 -.382E-03
   0.383E+01 0.487E+02 -.752E+03   -.427E+01 -.505E+02 0.749E+03   0.437E+00 0.180E+01 0.293E+01   -.264E-03 -.433E-03 -.653E-03
   0.487E+02 0.591E+02 -.715E+03   -.498E+02 -.606E+02 0.712E+03   0.116E+01 0.148E+01 0.272E+01   0.171E-03 -.342E-03 -.583E-03
   0.132E+02 0.237E+02 -.722E+03   -.150E+02 -.245E+02 0.719E+03   0.179E+01 0.779E+00 0.337E+01   0.254E-04 -.668E-03 -.426E-03
   0.316E+02 -.555E+02 -.921E+03   -.357E+02 0.598E+02 0.920E+03   0.417E+01 -.429E+01 0.669E+00   0.333E-03 0.245E-03 -.874E-03
   0.481E+02 -.249E+02 -.878E+03   -.515E+02 0.272E+02 0.877E+03   0.337E+01 -.238E+01 0.120E+01   0.126E-03 0.224E-03 -.706E-03
   0.882E+01 -.101E+03 -.836E+03   -.920E+01 0.106E+03 0.835E+03   0.387E+00 -.506E+01 0.111E+01   0.373E-03 -.255E-03 -.484E-03
   0.169E+02 -.425E+02 -.895E+03   -.221E+02 0.469E+02 0.895E+03   0.515E+01 -.444E+01 -.284E+00   0.318E-03 0.154E-03 -.471E-03
   0.290E+01 0.317E+02 -.105E+04   -.101E+01 -.343E+02 0.106E+04   -.189E+01 0.260E+01 -.264E+01   -.442E-03 0.213E-03 -.548E-03
   0.589E+02 0.192E+02 -.103E+04   -.593E+02 -.214E+02 0.103E+04   0.327E+00 0.218E+01 -.289E+01   -.105E-03 0.271E-03 -.772E-03
   0.121E+02 0.670E+02 -.105E+04   -.107E+02 -.710E+02 0.105E+04   -.137E+01 0.400E+01 -.194E+01   -.359E-04 -.114E-03 -.306E-03
   -.338E+02 0.234E+02 -.104E+04   0.344E+02 -.268E+02 0.105E+04   -.577E+00 0.340E+01 -.212E+01   -.553E-03 0.430E-04 -.562E-03
   0.230E+02 0.242E+02 -.142E+04   -.270E+02 -.258E+02 0.142E+04   0.397E+01 0.166E+01 -.459E+01   0.222E-04 -.727E-03 -.440E-03
   0.441E+02 0.380E+02 -.139E+04   -.476E+02 -.400E+02 0.139E+04   0.349E+01 0.204E+01 -.390E+01   0.277E-03 -.537E-03 -.448E-03
   0.176E+02 0.630E+02 -.105E+04   -.177E+02 -.663E+02 0.103E+04   0.174E+00 0.329E+01 0.111E+02   0.502E-03 0.100E-03 -.566E-03
   -.700E+01 0.212E+02 -.141E+04   0.462E+01 -.236E+02 0.141E+04   0.239E+01 0.241E+01 -.487E+01   0.842E-04 -.549E-03 -.358E-03
   -.291E+02 -.338E+02 -.140E+04   0.322E+02 0.350E+02 0.140E+04   -.313E+01 -.128E+01 -.280E+01   -.316E-03 0.235E-03 -.864E-03
   0.156E+02 -.334E+02 -.145E+04   -.125E+02 0.344E+02 0.145E+04   -.313E+01 -.965E+00 -.437E+01   -.458E-03 -.680E-05 -.800E-03
   -.749E+01 -.404E+02 -.142E+04   0.120E+02 0.415E+02 0.143E+04   -.448E+01 -.108E+01 -.397E+01   0.698E-04 0.109E-03 -.653E-03
   -.119E+03 -.216E+02 -.125E+04   0.122E+03 0.246E+02 0.125E+04   -.362E+01 -.297E+01 0.382E+00   -.796E-04 0.274E-03 -.699E-03
   -.355E+02 -.631E+01 -.165E+04   0.358E+02 0.964E+01 0.165E+04   -.305E+00 -.333E+01 -.862E+01   0.211E-03 0.427E-04 -.474E-03
   0.392E+01 -.248E+02 -.164E+04   -.340E+01 0.286E+02 0.165E+04   -.522E+00 -.382E+01 -.842E+01   0.230E-03 0.176E-03 -.647E-03
   0.602E-01 0.687E+02 -.160E+04   0.688E+01 -.646E+02 0.161E+04   -.695E+01 -.407E+01 -.102E+02   0.367E-03 -.338E-04 -.518E-03
   -.672E+02 -.950E+02 -.149E+04   0.666E+02 0.985E+02 0.150E+04   0.595E+00 -.349E+01 -.549E+01   0.222E-03 0.182E-03 -.576E-03
   -.353E+02 0.761E+01 -.170E+04   0.368E+02 -.900E+01 0.171E+04   -.151E+01 0.140E+01 -.111E+02   -.483E-03 0.240E-03 -.349E-03
   0.244E+02 0.378E+02 -.169E+04   -.230E+02 -.400E+02 0.170E+04   -.135E+01 0.216E+01 -.114E+02   -.565E-03 0.111E-03 -.442E-03
   0.522E+02 -.604E+02 -.165E+04   -.492E+02 0.600E+02 0.167E+04   -.293E+01 0.406E+00 -.118E+02   -.757E-04 0.305E-03 -.755E-03
   -.953E+02 0.820E+02 -.164E+04   0.988E+02 -.840E+02 0.165E+04   -.347E+01 0.193E+01 -.117E+02   -.162E-03 0.121E-03 -.153E-03
   -.547E+02 -.431E+02 -.183E+04   0.544E+02 0.468E+02 0.185E+04   0.219E+00 -.375E+01 -.185E+02   -.255E-03 -.306E-03 -.102E-02
   0.648E+01 -.418E+02 -.184E+04   -.621E+01 0.456E+02 0.186E+04   -.274E+00 -.382E+01 -.182E+02   -.166E-03 -.469E-04 -.924E-03
   0.251E+03 -.259E+02 -.170E+04   -.262E+03 0.278E+02 0.171E+04   0.108E+02 -.194E+01 -.637E+01   0.148E-03 -.152E-03 -.856E-03
   -.861E+01 -.587E+02 -.183E+04   0.867E+01 0.634E+02 0.185E+04   -.600E-01 -.468E+01 -.184E+02   0.880E-04 -.189E-03 -.858E-03
   -.134E+03 -.215E+03 -.181E+04   0.141E+03 0.229E+03 0.182E+04   -.759E+01 -.138E+02 -.964E+01   0.451E-03 -.339E-03 -.807E-03
   -.997E+02 0.231E+03 -.184E+04   0.108E+03 -.245E+03 0.186E+04   -.823E+01 0.147E+02 -.129E+02   0.350E-03 0.357E-03 -.937E-03
 -----------------------------------------------------------------------------------------------
   0.281E+02 0.220E+02 0.699E+02   -.284E-12 0.227E-12 0.296E-11   -.281E+02 -.223E+02 -.700E+02   0.321E-02 0.714E-03 0.154E-01
 
 
 POSITION                                       TOTAL-FORCE (eV/Angst)
 -----------------------------------------------------------------------------------
      0.99046      3.89727      0.91670        -1.494524     -1.862323     -0.684287
      4.22806      9.97101      0.91670        -1.502647     -1.878866     -0.746656
      8.54576      3.89727      0.91670        -1.350247     -1.927624     -0.782740
     11.78336      9.97101      0.91670        -1.346560     -1.844025     -0.733032
      0.16045     10.12553      1.16818        -0.252850      1.647109      0.423417
      4.47815      4.05179      1.16818        -0.183860      1.713376      0.195273
      7.71575     10.12553      1.16818        -0.089872      1.769286      0.127984
     12.03345      4.05179      1.16818        -0.121840      1.820753      0.502048
      3.52055      0.82336      1.36715        -0.846661     -0.882474      1.557966
      6.75815      6.89709      1.36715        -0.837035     -0.878642      1.530244
     11.07585      0.82336      1.36715        -0.749656     -0.834478      1.702542
     14.31345      6.89709      1.36715        -0.942141     -0.944561      1.780646
      2.69053      7.05173      1.61862         1.469287      0.478846     -2.491745
      7.00822      0.97799      1.61862         1.583891      0.430494     -2.480606
     10.24583      7.05173      1.61862         1.762336      0.414199     -2.431948
     14.56352      0.97799      1.61862         1.523150      0.500848     -2.435667
      0.53809     11.93364      4.09643         0.002181      0.001922      0.002100
      4.86460      5.87581      4.10145         0.002863      0.001203     -0.001074
      8.12406     11.95463      4.10593         0.000228     -0.002258      0.006838
     12.41464      5.86943      4.15227        -0.000553      0.001591     -0.000751
      0.81954      6.00958      4.37565         0.003699     -0.001039     -0.002046
      4.04966     12.08836      4.36698         0.004066     -0.002814     -0.001838
      8.37254      5.98326      4.36426        -0.001167      0.001485      0.002650
     11.60047     12.08526      4.38188        -0.002178      0.002703      0.008490
     -0.17227      2.79592      4.58886        -0.001809     -0.003348     -0.000090
      3.03790      8.86651      4.58654         0.003276      0.003791     -0.000109
      7.37320      2.78040      4.57626         0.000749      0.000896     -0.002693
     10.67001      8.85934      4.58288        -0.002699      0.001502      0.003511
      3.36463      2.93826      4.80980        -0.001091     -0.001406     -0.001441
      6.56699      9.02695      4.77990        -0.000262     -0.000485      0.000913
     10.94096      2.97154      4.87512        -0.004462     -0.001856      0.001436
     14.14009      8.98533      4.86288         0.001524      0.004239      0.003672
      1.17605      7.78872      7.53529        -0.000736      0.004959     -0.000964
      5.46901      1.69765      7.50029        -0.003654     -0.000191      0.000756
      8.69431      7.88524      7.28491        -0.003605      0.001781      0.002233
     13.07646      1.66054      7.51953         0.004020     -0.000113      0.003716
      1.49705      1.95490      7.48634        -0.004940      0.000120      0.001943
      4.70784      8.01158      7.49633        -0.003573      0.000744     -0.000607
      8.99695      1.91773      7.51892         0.002474     -0.003276      0.002595
     12.26209      8.05882      7.71149         0.000246      0.000877      0.001141
     -0.53528     10.79597      7.77521         0.002790     -0.001777     -0.001316
      3.75375      4.71876      7.80225        -0.003516     -0.000222      0.002860
      6.96755     10.78552      7.78253        -0.002477      0.005590      0.002579
     11.45380      4.60548      7.95676         0.006895      0.001896     -0.001027
     -0.25153      4.94332      8.04534         0.002965     -0.000162      0.000696
      2.94441     11.01265      8.05810        -0.006450      0.002406      0.000966
      7.24136      4.85878      8.01556        -0.002072      0.000919      0.002155
     10.51285     11.00528      8.08454        -0.006439      0.001671      0.000006
     10.09912      6.71381      9.88438        -0.000818     -0.005530     -0.002608
      0.18233      2.09605      0.00000         0.270893      0.969679      1.263392
      3.41993      8.16979      0.00000         0.289961      0.993111      1.265662
      7.73763      2.09605      0.00000         0.260036      0.981800      1.280950
     10.97523      8.16979      0.00000         0.235728      0.980422      1.280648
      2.77584      5.24249      0.37900         0.000770     -0.930876      0.584421
      6.01345     11.31622      0.37900        -0.035258     -0.927816      0.584026
     10.33114      5.24249      0.37900        -0.113387     -0.922094      0.575035
     13.56875     11.31622      0.37900        -0.050602     -0.925228      0.568996
      2.16153     10.82255      0.59691         0.416107      1.207554     -0.191158
      6.47922      4.74881      0.59691         0.398034      1.219607     -0.190555
      9.71683     10.82255      0.59691         0.347602      1.185344     -0.196553
     14.03452      4.74881      0.59691         0.397899      1.173599     -0.218727
      2.73983      2.74654      1.05910         1.191905     -1.024671     -0.426765
      5.97744      8.82028      1.05910         1.167502     -1.055501     -0.407178
     10.29513      2.74654      1.05910         1.110801     -1.024936     -0.452769
     13.53273      8.82028      1.05910         1.132665     -1.014278     -0.463951
      0.94100      8.20246      1.47622        -1.097716     -0.310912     -0.915325
      5.25870      2.12872      1.47622        -1.115069     -0.311847     -0.902215
      8.49630      8.20246      1.47622        -1.190223     -0.319785     -0.894021
     12.81400      2.12872      1.47622        -1.151150     -0.327152     -0.915277
      1.51931      0.12646      1.93841         0.369764     -0.081654      0.211736
      4.75691      6.20019      1.93841         0.427189     -0.017515      0.216482
      9.07461      0.12646      1.93841         0.425401     -0.028108      0.250731
     12.31221      6.20019      1.93841         0.365255     -0.075966      0.365115
      0.90515      5.70640      2.15632        -0.353607      0.328178      0.102026
      4.14276     11.78014      2.15632        -0.344741      0.324758      0.135083
      8.46045      5.70640      2.15632        -0.404466      0.306458      0.212072
     11.69806     11.78014      2.15632        -0.404151      0.320143      0.171695
      0.26091      2.77910      2.53532         0.215267      0.397316      0.483516
      3.49852      8.85284      2.53532         0.232189      0.419091      0.585924
      7.81621      2.77910      2.53532         0.234441      0.414447      0.499689
     11.05382      8.85284      2.53532         0.259848      0.386783      0.501694
     -0.21178     10.11275      3.20656        -0.008507      0.004166      0.001644
      4.12750      4.05341      3.20103        -0.001887     -0.004834      0.002032
      7.35233     10.13225      3.19546        -0.000134     -0.001400      0.000011
     11.66990      4.04159      3.21192        -0.002318     -0.002963      0.007196
      3.39928      1.13470      3.50439        -0.005219     -0.004609      0.002417
      6.63543      7.20847      3.51398         0.003960      0.002122      0.001379
     10.95605      1.13774      3.52181         0.008301      0.001534     -0.004150
     14.19725      7.20670      3.52285        -0.004359     -0.003216     -0.010441
      2.81586      6.70906      3.84753         0.002944      0.002620      0.001558
      7.14302      0.62000      3.85143         0.001965     -0.002167      0.000159
     10.36404      6.70237      3.85439         0.004915      0.003049     -0.000420
     14.68150      0.63372      3.85333         0.003757     -0.001978     -0.007679
      2.28919     10.81428      4.34017        -0.005362     -0.005432      0.007115
      6.60590      4.73320      4.33291        -0.009563     -0.010946      0.011171
      9.84711     10.79440      4.33649         0.002426      0.000855     -0.007449
     14.17030      4.74147      4.36584         0.000530     -0.001828     -0.001599
      1.61129      4.06957      4.59962        -0.003381     -0.000418     -0.003560
      4.82440     10.14432      4.62526        -0.003544      0.000625     -0.000843
      9.14005      4.07139      4.65872        -0.002122      0.000265      0.000395
     12.39288     10.15658      4.64371         0.009219     -0.004249     -0.003145
      1.05746      8.15404      5.14815        -0.005167      0.005484      0.009282
      5.37349      2.06093      5.10602         0.000094      0.001476     -0.005673
      8.61593      8.14958      5.11243         0.003478     -0.005921     -0.001681
     12.93644      2.05939      5.18133         0.010925      0.005839     -0.000800
      1.61087      1.58179      5.36330        -0.004952     -0.003516     -0.008968
      4.82472      7.66404      5.36925        -0.001768     -0.009532      0.001146
      9.15469      1.59661      5.39273         0.002654     -0.001874     -0.000693
     12.38199      7.67182      5.39570        -0.002842     -0.000755     -0.000246
     -0.24868     10.84873      5.74846        -0.001249     -0.001402     -0.004811
      4.07372      4.80659      5.77010        -0.003965      0.004687     -0.001760
      7.30740     10.85171      5.75206        -0.002350      0.000425     -0.009292
     11.62838      4.76852      5.77527         0.003353     -0.005004     -0.007085
      0.54038      5.97987      6.44281        -0.006764      0.005295     -0.003243
      3.70189     12.05113      6.43302        -0.003732      0.001648      0.002242
      7.94800      6.00363      6.44697         0.003646     -0.002537     -0.000721
     11.16768     12.06358      6.43689        -0.008642     -0.006860      0.004767
      3.00007      9.11355      6.77418         0.002756      0.002691     -0.000791
      7.25505      3.04221      6.74235         0.000562      0.005444      0.000581
     10.51702      9.06000      6.79180         0.000044     -0.002110      0.000179
     -0.17413      3.05242      6.73861        -0.004635      0.002407     -0.002551
      3.49419      2.59955      6.97189        -0.000295     -0.005370      0.003658
      6.70041      8.65678      6.94751        -0.002195     -0.005275      0.001440
     11.02007      2.59826      7.09452        -0.005521      0.004066      0.004504
     14.27830      8.63298      7.04776         0.005701      0.003821      0.000993
      3.03177      6.73078      7.89066         0.004224     -0.000656      0.004617
      7.29555      0.63987      7.82848        -0.006646      0.001365     -0.004272
     10.44632      6.61105      7.78832        -0.003597     -0.006629      0.000458
     14.91402      0.67402      7.87289         0.002037      0.007608      0.006288
      2.24160      0.04665      7.91755        -0.006090     -0.001991     -0.000820
      5.49045      6.13441      8.03571        -0.005774      0.001712      0.002704
      9.72685      0.00243      8.01170         0.002644      0.006187     -0.002597
     13.02943      6.07142      7.86645         0.003483     -0.015133     -0.003446
      1.75516      3.89525      8.42974        -0.005757      0.002852     -0.005379
      4.95887      9.94796      8.42341        -0.002406     -0.001689     -0.000125
      9.00919      3.77297      8.50612        -0.015357      0.001877      0.002298
     12.56675     10.17673      8.20132        -0.004824     -0.004978     -0.002359
      1.15696      9.70951      8.54409        -0.001735      0.008129     -0.005777
      5.44549      3.63365      8.52329         0.005090      0.002623     -0.000647
      8.62603      9.64336      8.49972        -0.004070     -0.002532      0.002303
     13.17223      3.54810      8.51165         0.007621     -0.003280     -0.001664
      0.43359      6.59596      8.98782        -0.018073      0.001728     -0.000969
      4.74741      0.51884      8.97800         0.002101      0.003507      0.006451
      8.16760      6.62689      9.07906        -0.004082     -0.004186     -0.008031
     12.29119      0.50784      8.99002        -0.000946      0.009817      0.002479
     11.38222      8.19627      9.64614        -0.005564     -0.007145     -0.002738
     11.07726      5.06664      9.97666        -0.008170     -0.011197      0.002426
 -----------------------------------------------------------------------------------
    total drift:                               -0.000229     -0.245485     -0.074111


--------------------------------------------------------------------------------------------------------



  FREE ENERGIE OF THE ION-ELECTRON SYSTEM (eV)
  ---------------------------------------------------
  free  energy   TOTEN  =     -1292.42404289 eV

  energy  without entropy=    -1292.42404289  energy(sigma->0) =    -1292.42404289
 


--------------------------------------------------------------------------------------------------------


    POTLOK:  cpu time    0.5602: real time    0.5599


--------------------------------------------------------------------------------------------------------


     LOOP+:  cpu time  362.0254: real time  361.7435
    4ORBIT:  cpu time    0.0000: real time    0.0000

 total amount of memory used by VASP MPI-rank0    90141. kBytes
=======================================================================

   base      :      30000. kBytes
   nonlr-proj:       8213. kBytes
   fftplans  :       4220. kBytes
   grid      :      11025. kBytes
   one-center:        311. kBytes
   wavefun   :      36372. kBytes
 
  
  
 General timing and accounting informations for this job:
 ========================================================
  
                  Total CPU time used (sec):      445.172
                            User time (sec):      432.019
                          System time (sec):       13.152
                         Elapsed time (sec):      447.878
  
                   Maximum memory used (kb):      375900.
                   Average memory used (kb):           0.
  
                          Minor page faults:        59505
                          Major page faults:           68
                 Voluntary context switches:         5660
