       N       E                     dE             d eps       ncg     rms          rms(c)
DAV:   1    -0.137740823767E+04   -0.13774E+04   -0.13569E+00  6304   0.986E-01    0.952E-01
DAV:   2    -0.137916444598E+04   -0.17562E+01   -0.12081E+00  6048   0.957E-01    0.413E-01
DAV:   3    -0.137917439169E+04   -0.99457E-02   -0.43607E-02  6720   0.231E-01    0.278E-01
DAV:   4    -0.137917443096E+04   -0.39273E-04   -0.21798E-03  5600   0.579E-02    0.224E-01
DAV:   5    -0.137917443323E+04   -0.22668E-05   -0.20161E-04  6912   0.183E-02    0.189E-01
DAV:   6    -0.137917444370E+04   -0.10474E-04   -0.25238E-05  6880   0.742E-03    0.162E-01
DAV:   7    -0.137917444859E+04   -0.48901E-05   -0.23836E-05  6912   0.802E-03    0.130E-01
DAV:   8    -0.137917445277E+04   -0.41807E-05   -0.18458E-05  6720   0.665E-03    0.107E-01
DAV:   9    -0.137917445710E+04   -0.43318E-05   -0.62583E-06  7264   0.374E-03    0.894E-02
DAV:  10    -0.137917446123E+04   -0.41236E-05   -0.10861E-05  6592   0.541E-03    0.638E-02
DAV:  11    -0.137917446526E+04   -0.40374E-05   -0.40639E-05  6464   0.103E-02    0.200E-02
DAV:  12    -0.137917446661E+04   -0.13422E-05   -0.66395E-06  6944   0.333E-03    0.124E-02
DAV:  13    -0.137917446679E+04   -0.18407E-06   -0.85663E-07  7072   0.143E-03    0.613E-03
DAV:  14    -0.137917446681E+04   -0.17710E-07   -0.56119E-07  6752   0.109E-03    0.272E-03
DAV:  15    -0.137917446677E+04    0.34401E-07   -0.86807E-08  5440   0.427E-04    0.109E-03
DAV:  16    -0.137917446675E+04    0.24680E-07   -0.19763E-08  3072   0.274E-04    0.453E-04
DAV:  17    -0.137917446675E+04   -0.10477E-08   -0.14227E-08  3136   0.159E-04
   1 F= -.13986991E+04 E0= -.13986991E+04  d E =-.139870E+04  mag=     0.0000
       N       E                     dE             d eps       ncg     rms          rms(c)
DAV:   1    -0.137917391390E+04    0.55285E-03   -0.58255E-01  5120   0.876E-01    0.121E-01
DAV:   2    -0.137917427168E+04   -0.35778E-03   -0.54230E-03  5600   0.808E-02    0.794E-02
DAV:   3    -0.137917421097E+04    0.60713E-04   -0.55762E-04  6112   0.362E-02    0.335E-02
DAV:   4    -0.137917421449E+04   -0.35217E-05   -0.11309E-04  6112   0.151E-02    0.152E-02
DAV:   5    -0.137917421197E+04    0.25172E-05   -0.25424E-05  6336   0.743E-03    0.706E-03
DAV:   6    -0.137917421159E+04    0.38024E-06   -0.33929E-06  5824   0.244E-03    0.375E-03
DAV:   7    -0.137917421153E+04    0.67652E-07   -0.23417E-06  6272   0.226E-03    0.159E-03
DAV:   8    -0.137917421156E+04   -0.38650E-07   -0.36719E-07  5792   0.100E-03    0.100E-03
DAV:   9    -0.137917421165E+04   -0.88126E-07   -0.12886E-07  4832   0.526E-04    0.448E-04
DAV:  10    -0.137917421175E+04   -0.99462E-07   -0.52986E-08  4672   0.446E-04    0.415E-04
DAV:  11    -0.137917421183E+04   -0.74069E-07   -0.34682E-08  4384   0.297E-04    0.234E-04
DAV:  12    -0.137917421190E+04   -0.75495E-07   -0.88854E-09  3264   0.173E-04    0.113E-04
DAV:  13    -0.137917421202E+04   -0.11308E-06   -0.13841E-08  3584   0.170E-04    0.150E-04
DAV:  14    -0.137917421207E+04   -0.59212E-07   -0.44448E-09  3072   0.102E-04    0.112E-04
DAV:  15    -0.137917421213E+04   -0.52882E-07   -0.50946E-09  3136   0.912E-05    0.480E-05
DAV:  16    -0.137917421217E+04   -0.46712E-07   -0.27795E-09  3072   0.592E-05    0.511E-05
DAV:  17    -0.137917421220E+04   -0.26819E-07   -0.15847E-09  3072   0.403E-05    0.416E-05
DAV:  18    -0.137917421222E+04   -0.21580E-07   -0.12777E-09  3072   0.444E-05    0.174E-05
DAV:  19    -0.137917421223E+04   -0.11903E-07   -0.56468E-10  3072   0.288E-05    0.179E-05
DAV:  20    -0.137917421224E+04   -0.78726E-08   -0.15240E-10  2944   0.205E-05
   2 F= -.13986989E+04 E0= -.13986989E+04  d E =0.205034E-03  mag=     0.0000
       N       E                     dE             d eps       ncg     rms          rms(c)
DAV:   1    -0.137917312582E+04    0.10864E-02   -0.11609E+00  5120   0.123E+00    0.140E-01
DAV:   2    -0.137917394637E+04   -0.82055E-03   -0.10945E-02  5536   0.109E-01    0.865E-02
DAV:   3    -0.137917384686E+04    0.99510E-04   -0.84019E-04  6144   0.369E-02    0.451E-02
DAV:   4    -0.137917383176E+04    0.15100E-04   -0.24116E-04  5600   0.220E-02    0.171E-02
DAV:   5    -0.137917382945E+04    0.23112E-05   -0.55746E-05  5440   0.105E-02    0.102E-02
DAV:   6    -0.137917382986E+04   -0.41007E-06   -0.12972E-05  6816   0.397E-03    0.630E-03
DAV:   7    -0.137917382946E+04    0.40689E-06   -0.31936E-06  6112   0.258E-03    0.330E-03
DAV:   8    -0.137917382965E+04   -0.19492E-06   -0.11317E-06  6368   0.148E-03    0.193E-03
DAV:   9    -0.137917382973E+04   -0.74957E-07   -0.35298E-07  5696   0.850E-04    0.766E-04
DAV:  10    -0.137917382989E+04   -0.16097E-06   -0.77751E-08  4736   0.377E-04    0.313E-04
DAV:  11    -0.137917383006E+04   -0.17883E-06   -0.18404E-08  3744   0.230E-04    0.256E-04
DAV:  12    -0.137917383023E+04   -0.16611E-06   -0.18283E-08  3904   0.218E-04    0.121E-04
DAV:  13    -0.137917383034E+04   -0.11352E-06   -0.12102E-08  3392   0.146E-04    0.129E-04
DAV:  14    -0.137917383044E+04   -0.96799E-07   -0.42158E-09  3072   0.803E-05    0.875E-05
DAV:  15    -0.137917383051E+04   -0.73094E-07   -0.52352E-09  3136   0.822E-05    0.375E-05
DAV:  16    -0.137917383056E+04   -0.41924E-07   -0.23149E-09  3072   0.481E-05    0.390E-05
DAV:  17    -0.137917383058E+04   -0.24113E-07   -0.12508E-09  3072   0.324E-05    0.319E-05
DAV:  18    -0.137917383060E+04   -0.16793E-07   -0.89270E-10  3072   0.329E-05    0.996E-06
DAV:  19    -0.137917383061E+04   -0.97789E-08   -0.63071E-10  3072   0.287E-05
   3 F= -.13986987E+04 E0= -.13986987E+04  d E =0.275477E-03  mag=     0.0000
       N       E                     dE             d eps       ncg     rms          rms(c)
DAV:   1    -0.137917318648E+04    0.64411E-03   -0.11579E+00  5120   0.124E+00    0.153E-01
DAV:   2    -0.137917383197E+04   -0.64549E-03   -0.10690E-02  5536   0.117E-01    0.111E-01
DAV:   3    -0.137917369476E+04    0.13722E-03   -0.12103E-03  6144   0.534E-02    0.516E-02
DAV:   4    -0.137917370246E+04   -0.77063E-05   -0.23101E-04  6208   0.214E-02    0.219E-02
DAV:   5    -0.137917369576E+04    0.67045E-05   -0.62328E-05  5472   0.139E-02    0.953E-03
DAV:   6    -0.137917369574E+04    0.22177E-07   -0.86797E-06  5632   0.426E-03    0.447E-03
DAV:   7    -0.137917369595E+04   -0.20767E-06   -0.42739E-06  5952   0.312E-03    0.288E-03
DAV:   8    -0.137917369607E+04   -0.12133E-06   -0.76070E-07  6016   0.140E-03    0.143E-03
DAV:   9    -0.137917369643E+04   -0.36572E-06   -0.43274E-07  5664   0.117E-03    0.797E-04
DAV:  10    -0.137917369681E+04   -0.38110E-06   -0.14186E-07  5600   0.734E-04    0.614E-04
DAV:  11    -0.137917369717E+04   -0.36063E-06   -0.78684E-08  5248   0.513E-04    0.256E-04
DAV:  12    -0.137917369764E+04   -0.46937E-06   -0.33771E-08  4096   0.426E-04    0.244E-04
DAV:  13    -0.137917369792E+04   -0.27401E-06   -0.29501E-08  4112   0.244E-04    0.172E-04
DAV:  14    -0.137917369814E+04   -0.21775E-06   -0.67530E-09  3168   0.117E-04    0.904E-05
DAV:  15    -0.137917369837E+04   -0.23651E-06   -0.11915E-08  3424   0.106E-04    0.701E-05
DAV:  16    -0.137917369846E+04   -0.89538E-07   -0.30469E-09  3136   0.691E-05    0.382E-05
DAV:  17    -0.137917369858E+04   -0.11729E-06   -0.48654E-09  3072   0.649E-05    0.506E-05
DAV:  18    -0.137917369862E+04   -0.46202E-07   -0.18367E-09  3072   0.505E-05    0.386E-05
DAV:  19    -0.137917369866E+04   -0.32975E-07   -0.19740E-09  3072   0.541E-05    0.308E-05
DAV:  20    -0.137917369868E+04   -0.17331E-07   -0.88546E-10  3104   0.382E-05    0.283E-05
DAV:  21    -0.137917369868E+04   -0.81200E-08   -0.40678E-10  3072   0.283E-05
   4 F= -.13986989E+04 E0= -.13986989E+04  d E =-.195929E-03  mag=     0.0000
       N       E                     dE             d eps       ncg     rms          rms(c)
DAV:   1    -0.137917293649E+04    0.76219E-03   -0.11646E+00  5120   0.122E+00    0.173E-01
DAV:   2    -0.137917385395E+04   -0.91747E-03   -0.12352E-02  5600   0.116E-01    0.117E-01
DAV:   3    -0.137917368087E+04    0.17308E-03   -0.11206E-03  6304   0.469E-02    0.576E-02
DAV:   4    -0.137917367041E+04    0.10457E-04   -0.29732E-04  6144   0.240E-02    0.210E-02
DAV:   5    -0.137917366607E+04    0.43389E-05   -0.57718E-05  5952   0.111E-02    0.114E-02
DAV:   6    -0.137917366419E+04    0.18804E-05   -0.81526E-06  5728   0.404E-03    0.566E-03
DAV:   7    -0.137917366343E+04    0.76352E-06   -0.45091E-06  6752   0.351E-03    0.239E-03
DAV:   8    -0.137917366327E+04    0.15598E-06   -0.96712E-07  5856   0.175E-03    0.139E-03
DAV:   9    -0.137917366347E+04   -0.19319E-06   -0.52898E-07  6576   0.147E-03    0.964E-04
DAV:  10    -0.137917366401E+04   -0.54220E-06   -0.29817E-07  6064   0.134E-03    0.692E-04
DAV:  11    -0.137917366470E+04   -0.69159E-06   -0.32408E-07  5824   0.959E-04    0.413E-04
DAV:  12    -0.137917366517E+04   -0.46936E-06   -0.71241E-08  5104   0.329E-04    0.345E-04
DAV:  13    -0.137917366553E+04   -0.35512E-06   -0.15012E-08  3520   0.185E-04    0.202E-04
DAV:  14    -0.137917366611E+04   -0.57956E-06   -0.34908E-08  4288   0.181E-04    0.118E-04
DAV:  15    -0.137917366636E+04   -0.25640E-06   -0.65915E-09  3264   0.925E-05    0.767E-05
DAV:  16    -0.137917366662E+04   -0.25895E-06   -0.86414E-09  3312   0.797E-05    0.528E-05
DAV:  17    -0.137917366677E+04   -0.14903E-06   -0.46500E-09  3072   0.643E-05    0.385E-05
DAV:  18    -0.137917366687E+04   -0.95708E-07   -0.42574E-09  3072   0.557E-05    0.200E-05
DAV:  19    -0.137917366691E+04   -0.43816E-07   -0.26745E-09  3120   0.488E-05    0.169E-05
DAV:  20    -0.137917366692E+04   -0.13664E-07   -0.13029E-09  3088   0.365E-05    0.115E-05
DAV:  21    -0.137917366693E+04   -0.77562E-08   -0.58881E-10  3072   0.289E-05
   5 F= -.13986981E+04 E0= -.13986981E+04  d E =0.712172E-03  mag=     0.0000
       N       E                     dE             d eps       ncg     rms          rms(c)
DAV:   1    -0.137917243857E+04    0.12284E-02   -0.11778E+00  5120   0.106E+00    0.109E-01
DAV:   2    -0.137917272393E+04   -0.28536E-03   -0.59050E-03  5376   0.777E-02    0.651E-02
DAV:   3    -0.137917263628E+04    0.87650E-04   -0.63502E-04  6016   0.273E-02    0.225E-02
DAV:   4    -0.137917263626E+04    0.20664E-07   -0.88815E-05  6080   0.988E-03    0.137E-02
DAV:   5    -0.137917263519E+04    0.10693E-05   -0.79079E-06  5728   0.311E-03    0.705E-03
DAV:   6    -0.137917263471E+04    0.47962E-06   -0.16182E-06  6144   0.218E-03    0.250E-03
DAV:   7    -0.137917263474E+04   -0.22628E-07   -0.78244E-07  6656   0.110E-03    0.110E-03
DAV:   8    -0.137917263504E+04   -0.30636E-06   -0.16860E-07  5472   0.528E-04    0.749E-04
DAV:   9    -0.137917263539E+04   -0.34389E-06   -0.48784E-08  4448   0.358E-04    0.374E-04
DAV:  10    -0.137917263584E+04   -0.45414E-06   -0.75011E-08  4912   0.423E-04    0.225E-04
DAV:  11    -0.137917263614E+04   -0.30328E-06   -0.27012E-08  4128   0.198E-04    0.172E-04
DAV:  12    -0.137917263641E+04   -0.26384E-06   -0.11220E-08  3456   0.111E-04    0.993E-05
DAV:  13    -0.137917263664E+04   -0.23560E-06   -0.14106E-08  3792   0.964E-05    0.769E-05
DAV:  14    -0.137917263674E+04   -0.95650E-07   -0.31909E-09  3136   0.587E-05    0.510E-05
DAV:  15    -0.137917263681E+04   -0.76237E-07   -0.24764E-09  3040   0.506E-05    0.317E-05
DAV:  16    -0.137917263688E+04   -0.67506E-07   -0.23831E-09  3136   0.440E-05    0.349E-05
DAV:  17    -0.137917263692E+04   -0.41327E-07   -0.15627E-09  3072   0.397E-05    0.236E-05
DAV:  18    -0.137917263695E+04   -0.22133E-07   -0.10102E-09  3072   0.381E-05    0.169E-05
DAV:  19    -0.137917263695E+04   -0.63301E-08   -0.37545E-10  2944   0.256E-05
   6 F= -.13986972E+04 E0= -.13986972E+04  d E =0.901629E-03  mag=     0.0000
       N       E                     dE             d eps       ncg     rms          rms(c)
DAV:   1    -0.137917288418E+04   -0.24723E-03   -0.11784E+00  5120   0.108E+00    0.135E-01
DAV:   2    -0.137917327682E+04   -0.39264E-03   -0.72298E-03  5376   0.882E-02    0.859E-02
DAV:   3    -0.137917318705E+04    0.89771E-04   -0.86141E-04  6368   0.373E-02    0.315E-02
DAV:   4    -0.137917319064E+04   -0.35952E-05   -0.13283E-04  5984   0.138E-02    0.176E-02
DAV:   5    -0.137917318734E+04    0.33041E-05   -0.18990E-05  5824   0.651E-03    0.818E-03
DAV:   6    -0.137917318643E+04    0.90370E-06   -0.38646E-06  6272   0.318E-03    0.292E-03
DAV:   7    -0.137917318678E+04   -0.34792E-06   -0.15530E-06  7072   0.203E-03    0.150E-03
DAV:   8    -0.137917318723E+04   -0.44808E-06   -0.33705E-07  6272   0.990E-04    0.994E-04
DAV:   9    -0.137917318824E+04   -0.10142E-05   -0.18988E-07  5408   0.104E-03    0.560E-04
DAV:  10    -0.137917318904E+04   -0.79829E-06   -0.18018E-07  5600   0.785E-04    0.418E-04
DAV:  11    -0.137917318983E+04   -0.79247E-06   -0.11307E-07  5248   0.515E-04    0.300E-04
DAV:  12    -0.137917319049E+04   -0.65887E-06   -0.33955E-08  4320   0.306E-04    0.168E-04
DAV:  13    -0.137917319094E+04   -0.44557E-06   -0.24890E-08  4192   0.180E-04    0.119E-04
DAV:  14    -0.137917319120E+04   -0.26177E-06   -0.60196E-09  3296   0.846E-05    0.753E-05
DAV:  15    -0.137917319150E+04   -0.29830E-06   -0.12033E-08  3648   0.808E-05    0.611E-05
DAV:  16    -0.137917319158E+04   -0.81462E-07   -0.17447E-09  3136   0.557E-05    0.395E-05
DAV:  17    -0.137917319171E+04   -0.13372E-06   -0.55711E-09  3296   0.740E-05    0.440E-05
DAV:  18    -0.137917319175E+04   -0.33004E-07   -0.14333E-09  3072   0.524E-05    0.403E-05
DAV:  19    -0.137917319177E+04   -0.21289E-07   -0.83472E-10  3136   0.397E-05    0.235E-05
DAV:  20    -0.137917319179E+04   -0.22425E-07   -0.67513E-10  3072   0.365E-05    0.158E-05
DAV:  21    -0.137917319180E+04   -0.89203E-08   -0.28698E-10  3072   0.268E-05
   7 F= -.13986982E+04 E0= -.13986982E+04  d E =-.961886E-03  mag=    -0.0000
       N       E                     dE             d eps       ncg     rms          rms(c)
DAV:   1    -0.137917304603E+04    0.14576E-03   -0.11617E+00  5120   0.112E+00    0.191E-01
DAV:   2    -0.137917392448E+04   -0.87844E-03   -0.12064E-02  5568   0.105E-01    0.134E-01
DAV:   3    -0.137917374393E+04    0.18055E-03   -0.13065E-03  6144   0.496E-02    0.664E-02
DAV:   4    -0.137917373955E+04    0.43795E-05   -0.31158E-04  6304   0.232E-02    0.219E-02
DAV:   5    -0.137917373417E+04    0.53816E-05   -0.49515E-05  5792   0.107E-02    0.115E-02
DAV:   6    -0.137917373241E+04    0.17654E-05   -0.10170E-05  5792   0.442E-03    0.496E-03
DAV:   7    -0.137917373227E+04    0.13763E-06   -0.36551E-06  6720   0.289E-03    0.240E-03
DAV:   8    -0.137917373262E+04   -0.34673E-06   -0.61602E-07  5760   0.150E-03    0.138E-03
DAV:   9    -0.137917373321E+04   -0.59347E-06   -0.43900E-07  6208   0.132E-03    0.872E-04
DAV:  10    -0.137917373433E+04   -0.11229E-05   -0.26455E-07  5760   0.110E-03    0.542E-04
DAV:  11    -0.137917373562E+04   -0.12891E-05   -0.18550E-07  5248   0.937E-04    0.286E-04
DAV:  12    -0.137917373644E+04   -0.81990E-06   -0.12666E-07  5024   0.455E-04    0.320E-04
DAV:  13    -0.137917373682E+04   -0.37467E-06   -0.11334E-08  3520   0.137E-04    0.209E-04
DAV:  14    -0.137917373748E+04   -0.66553E-06   -0.31099E-08  4160   0.153E-04    0.105E-04
DAV:  15    -0.137917373782E+04   -0.34110E-06   -0.85775E-09  3328   0.888E-05    0.691E-05
DAV:  16    -0.137917373807E+04   -0.24703E-06   -0.75443E-09  3232   0.705E-05    0.480E-05
DAV:  17    -0.137917373819E+04   -0.11917E-06   -0.30469E-09  3136   0.574E-05    0.288E-05
DAV:  18    -0.137917373830E+04   -0.10752E-06   -0.45349E-09  3072   0.563E-05    0.263E-05
DAV:  19    -0.137917373832E+04   -0.25830E-07   -0.14342E-09  3136   0.428E-05    0.190E-05
DAV:  20    -0.137917373835E+04   -0.26499E-07   -0.12728E-09  3072   0.382E-05    0.223E-05
DAV:  21    -0.137917373835E+04   -0.27649E-08   -0.41298E-10  3072   0.295E-05
   8 F= -.13986982E+04 E0= -.13986982E+04  d E =0.107071E-05  mag=     0.0000
       N       E                     dE             d eps       ncg     rms          rms(c)
DAV:   1    -0.137917311693E+04    0.62142E-03   -0.11706E+00  5120   0.107E+00    0.307E-01
DAV:   2    -0.137917378734E+04   -0.67041E-03   -0.11555E-02  5632   0.108E-01    0.249E-01
DAV:   3    -0.137917364241E+04    0.14493E-03   -0.32691E-03  5792   0.892E-02    0.555E-02
DAV:   4    -0.137917359574E+04    0.46665E-04   -0.82332E-04  5632   0.365E-02    0.323E-02
DAV:   5    -0.137917358401E+04    0.11738E-04   -0.13691E-04  6432   0.163E-02    0.159E-02
DAV:   6    -0.137917358212E+04    0.18892E-05   -0.25964E-05  6624   0.692E-03    0.732E-03
DAV:   7    -0.137917358167E+04    0.44839E-06   -0.36404E-06  6912   0.271E-03    0.350E-03
DAV:   8    -0.137917358284E+04   -0.11678E-05   -0.13558E-06  6384   0.184E-03    0.181E-03
DAV:   9    -0.137917358432E+04   -0.14807E-05   -0.59513E-07  5760   0.137E-03    0.105E-03
DAV:  10    -0.137917358649E+04   -0.21726E-05   -0.29942E-07  5376   0.102E-03    0.592E-04
DAV:  11    -0.137917358872E+04   -0.22324E-05   -0.27000E-07  5328   0.906E-04    0.379E-04
DAV:  12    -0.137917359043E+04   -0.17101E-05   -0.14215E-07  4928   0.460E-04    0.344E-04
DAV:  13    -0.137917359134E+04   -0.90738E-06   -0.28370E-08  4320   0.173E-04    0.189E-04
DAV:  14    -0.137917359225E+04   -0.91341E-06   -0.31117E-08  4160   0.148E-04    0.127E-04
DAV:  15    -0.137917359265E+04   -0.39418E-06   -0.84790E-09  3360   0.959E-05    0.825E-05
DAV:  16    -0.137917359292E+04   -0.27815E-06   -0.65091E-09  3104   0.864E-05    0.457E-05
DAV:  17    -0.137917359315E+04   -0.22622E-06   -0.82403E-09  3312   0.949E-05    0.385E-05
DAV:  18    -0.137917359325E+04   -0.10195E-06   -0.44992E-09  3072   0.775E-05    0.315E-05
DAV:  19    -0.137917359331E+04   -0.52474E-07   -0.25527E-09  3072   0.596E-05    0.189E-05
DAV:  20    -0.137917359333E+04   -0.29133E-07   -0.14679E-09  3072   0.444E-05    0.176E-05
DAV:  21    -0.137917359334E+04   -0.64319E-08   -0.53554E-10  3072   0.290E-05
   9 F= -.13986986E+04 E0= -.13986986E+04  d E =-.362954E-03  mag=    -0.0000
       N       E                     dE             d eps       ncg     rms          rms(c)
DAV:   1    -0.137917303678E+04    0.55655E-03   -0.11501E+00  5120   0.106E+00    0.205E-01
DAV:   2    -0.137917404680E+04   -0.10100E-02   -0.12531E-02  5824   0.916E-02    0.148E-01
DAV:   3    -0.137917387388E+04    0.17293E-03   -0.12596E-03  6400   0.417E-02    0.822E-02
DAV:   4    -0.137917385129E+04    0.22587E-04   -0.35447E-04  5632   0.208E-02    0.302E-02
DAV:   5    -0.137917384128E+04    0.10007E-04   -0.15635E-04  5504   0.173E-02    0.120E-02
DAV:   6    -0.137917384287E+04   -0.15835E-05   -0.21409E-05  5440   0.553E-03    0.545E-03
DAV:   7    -0.137917384695E+04   -0.40811E-05   -0.47625E-06  5888   0.299E-03    0.286E-03
DAV:   8    -0.137917385024E+04   -0.32875E-05   -0.87486E-07  5760   0.119E-03    0.159E-03
DAV:   9    -0.137917385514E+04   -0.48982E-05   -0.83448E-07  4896   0.134E-03    0.125E-03
DAV:  10    -0.137917385991E+04   -0.47702E-05   -0.45527E-07  5216   0.714E-04    0.101E-03
DAV:  11    -0.137917386343E+04   -0.35282E-05   -0.52499E-07  5152   0.771E-04    0.615E-04
DAV:  12    -0.137917386609E+04   -0.26542E-05   -0.20443E-07  4928   0.477E-04    0.484E-04
DAV:  13    -0.137917386751E+04   -0.14182E-05   -0.80827E-08  4928   0.268E-04    0.227E-04
DAV:  14    -0.137917386860E+04   -0.10896E-05   -0.50255E-08  4416   0.169E-04    0.117E-04
DAV:  15    -0.137917386920E+04   -0.60427E-06   -0.19128E-08  3776   0.102E-04    0.829E-05
DAV:  16    -0.137917386957E+04   -0.37176E-06   -0.10198E-08  3360   0.761E-05    0.415E-05
DAV:  17    -0.137917386979E+04   -0.22251E-06   -0.75107E-09  3264   0.699E-05    0.328E-05
DAV:  18    -0.137917386987E+04   -0.73574E-07   -0.21877E-09  3136   0.491E-05    0.287E-05
DAV:  19    -0.137917386993E+04   -0.65396E-07   -0.16686E-09  3072   0.416E-05    0.189E-05
DAV:  20    -0.137917386995E+04   -0.21959E-07   -0.67733E-10  3072   0.319E-05    0.114E-05
DAV:  21    -0.137917386998E+04   -0.23298E-07   -0.41822E-10  3008   0.298E-05    0.171E-05
DAV:  22    -0.137917386999E+04   -0.78580E-08   -0.10093E-10  3040   0.207E-05
  10 F= -.13986989E+04 E0= -.13986989E+04  d E =-.341756E-03  mag=     0.0000
       N       E                     dE             d eps       ncg     rms          rms(c)
DAV:   1    -0.137917367032E+04    0.19966E-03   -0.60964E-01  5120   0.782E-01    0.147E-01
DAV:   2    -0.137917421166E+04   -0.54134E-03   -0.76852E-03  5728   0.801E-02    0.993E-02
DAV:   3    -0.137917411509E+04    0.96573E-04   -0.82833E-04  6304   0.396E-02    0.595E-02
DAV:   4    -0.137917410329E+04    0.11800E-04   -0.22158E-04  5632   0.203E-02    0.206E-02
DAV:   5    -0.137917409867E+04    0.46192E-05   -0.55294E-05  5536   0.117E-02    0.971E-03
DAV:   6    -0.137917409833E+04    0.33702E-06   -0.12256E-05  6304   0.513E-03    0.478E-03
DAV:   7    -0.137917409883E+04   -0.49693E-06   -0.28994E-06  6528   0.265E-03    0.245E-03
DAV:   8    -0.137917409977E+04   -0.93480E-06   -0.36662E-07  6144   0.120E-03    0.137E-03
DAV:   9    -0.137917410154E+04   -0.17729E-05   -0.42441E-07  5248   0.138E-03    0.740E-04
DAV:  10    -0.137917410315E+04   -0.16077E-05   -0.27133E-07  5472   0.829E-04    0.772E-04
DAV:  11    -0.137917410482E+04   -0.16758E-05   -0.14219E-07  5216   0.552E-04    0.364E-04
DAV:  12    -0.137917410629E+04   -0.14700E-05   -0.11786E-07  4832   0.504E-04    0.322E-04
DAV:  13    -0.137917410706E+04   -0.77196E-06   -0.48817E-08  4544   0.267E-04    0.228E-04
DAV:  14    -0.137917410762E+04   -0.55952E-06   -0.13962E-08  3584   0.134E-04    0.117E-04
DAV:  15    -0.137917410829E+04   -0.66994E-06   -0.24468E-08  4000   0.109E-04    0.119E-04
DAV:  16    -0.137917410857E+04   -0.27759E-06   -0.55148E-09  3200   0.779E-05    0.579E-05
DAV:  17    -0.137917410878E+04   -0.20518E-06   -0.55105E-09  3232   0.695E-05    0.450E-05
DAV:  18    -0.137917410887E+04   -0.91983E-07   -0.20771E-09  3072   0.470E-05    0.286E-05
DAV:  19    -0.137917410892E+04   -0.50117E-07   -0.16990E-09  3072   0.403E-05    0.196E-05
DAV:  20    -0.137917410893E+04   -0.12791E-07   -0.41090E-10  3136   0.256E-05    0.171E-05
DAV:  21    -0.137917410894E+04   -0.11816E-07   -0.27527E-10  3008   0.206E-05    0.764E-06
DAV:  22    -0.137917410895E+04   -0.38126E-08    0.44466E-11  3072   0.141E-05
  11 F= -.13986988E+04 E0= -.13986988E+04  d E =0.109198E-03  mag=     0.0000
       N       E                     dE             d eps       ncg     rms          rms(c)
DAV:   1    -0.137917291134E+04    0.11976E-02   -0.62020E-02  5184   0.137E-01    0.791E-02
DAV:   2    -0.137917294842E+04   -0.37075E-04   -0.48901E-04  5440   0.195E-02    0.450E-02
DAV:   3    -0.137917297130E+04   -0.22879E-04   -0.66345E-05  5632   0.842E-03    0.148E-02
DAV:   4    -0.137917297276E+04   -0.14586E-05   -0.32450E-05  6304   0.689E-03    0.679E-03
DAV:   5    -0.137917297220E+04    0.55754E-06   -0.52345E-06  6464   0.264E-03    0.218E-03
DAV:   6    -0.137917297291E+04   -0.71300E-06   -0.10583E-06  4928   0.108E-03    0.127E-03
DAV:   7    -0.137917297347E+04   -0.55252E-06   -0.16619E-07  5440   0.582E-04    0.552E-04
DAV:   8    -0.137917297399E+04   -0.52246E-06   -0.71511E-08  4704   0.312E-04    0.292E-04
DAV:   9    -0.137917297464E+04   -0.64984E-06   -0.41933E-08  4352   0.207E-04    0.169E-04
DAV:  10    -0.137917297511E+04   -0.47068E-06   -0.26063E-08  4256   0.149E-04    0.125E-04
DAV:  11    -0.137917297543E+04   -0.31857E-06   -0.13069E-08  3584   0.106E-04    0.728E-05
DAV:  12    -0.137917297567E+04   -0.24465E-06   -0.11471E-08  3648   0.853E-05    0.734E-05
DAV:  13    -0.137917297580E+04   -0.13011E-06   -0.47144E-09  3136   0.658E-05    0.493E-05
DAV:  14    -0.137917297590E+04   -0.98749E-07   -0.56090E-09  3296   0.728E-05    0.297E-05
DAV:  15    -0.137917297593E+04   -0.28769E-07   -0.19569E-09  3008   0.588E-05    0.260E-05
DAV:  16    -0.137917297596E+04   -0.34182E-07   -0.15813E-09  3072   0.450E-05    0.142E-05
DAV:  17    -0.137917297598E+04   -0.18001E-07   -0.71768E-10  3072   0.317E-05    0.154E-05
DAV:  18    -0.137917297599E+04   -0.55588E-08   -0.19403E-10  2944   0.206E-05
  12 F= -.13986977E+04 E0= -.13986977E+04  d E =0.106567E-02  mag=    -0.0000
       N       E                     dE             d eps       ncg     rms          rms(c)
DAV:   1    -0.137917365753E+04   -0.68155E-03   -0.61257E-02  5120   0.136E-01    0.712E-02
DAV:   2    -0.137917371265E+04   -0.55117E-04   -0.40263E-04  5440   0.172E-02    0.426E-02
DAV:   3    -0.137917374384E+04   -0.31196E-04   -0.41689E-05  5696   0.760E-03    0.959E-03
DAV:   4    -0.137917374444E+04   -0.59395E-06   -0.77757E-06  6464   0.376E-03    0.277E-03
DAV:   5    -0.137917374480E+04   -0.36249E-06   -0.68502E-07  5600   0.103E-03    0.159E-03
DAV:   6    -0.137917374526E+04   -0.45485E-06   -0.27611E-07  5696   0.722E-04    0.833E-04
DAV:   7    -0.137917374574E+04   -0.48334E-06   -0.82613E-08  5216   0.450E-04    0.409E-04
DAV:   8    -0.137917374620E+04   -0.46588E-06   -0.48129E-08  4704   0.302E-04    0.255E-04
DAV:   9    -0.137917374666E+04   -0.45923E-06   -0.20891E-08  3936   0.200E-04    0.145E-04
DAV:  10    -0.137917374710E+04   -0.43371E-06   -0.25513E-08  4192   0.181E-04    0.114E-04
DAV:  11    -0.137917374735E+04   -0.24836E-06   -0.96749E-09  3488   0.110E-04    0.694E-05
DAV:  12    -0.137917374754E+04   -0.19665E-06   -0.86304E-09  3360   0.922E-05    0.520E-05
DAV:  13    -0.137917374764E+04   -0.97207E-07   -0.40885E-09  3136   0.677E-05    0.501E-05
DAV:  14    -0.137917374771E+04   -0.69442E-07   -0.33415E-09  3072   0.693E-05    0.246E-05
DAV:  15    -0.137917374774E+04   -0.30152E-07   -0.23632E-09  3120   0.624E-05    0.301E-05
DAV:  16    -0.137917374776E+04   -0.16444E-07   -0.98638E-10  3072   0.361E-05    0.271E-05
DAV:  17    -0.137917374777E+04   -0.12122E-07   -0.63535E-10  3072   0.358E-05    0.156E-05
DAV:  18    -0.137917374777E+04   -0.37689E-08   -0.28076E-10  2944   0.240E-05
  13 F= -.13986982E+04 E0= -.13986982E+04  d E =-.462147E-03  mag=    -0.0000
       N       E                     dE             d eps       ncg     rms          rms(c)
DAV:   1    -0.137917412787E+04   -0.38010E-03   -0.69853E-02  5088   0.182E-01    0.958E-02
DAV:   2    -0.137917411916E+04    0.87099E-05   -0.93714E-04  5856   0.287E-02    0.527E-02
DAV:   3    -0.137917412503E+04   -0.58690E-05   -0.14429E-04  5632   0.121E-02    0.214E-02
DAV:   4    -0.137917412584E+04   -0.81903E-06   -0.67460E-05  5952   0.973E-03    0.108E-02
DAV:   5    -0.137917412462E+04    0.12267E-05   -0.15581E-05  6400   0.464E-03    0.222E-03
DAV:   6    -0.137917412503E+04   -0.41687E-06   -0.13634E-06  5216   0.124E-03    0.201E-03
DAV:   7    -0.137917412530E+04   -0.26209E-06   -0.44630E-07  5856   0.840E-04    0.529E-04
DAV:   8    -0.137917412563E+04   -0.33123E-06   -0.91810E-08  4608   0.360E-04    0.482E-04
DAV:   9    -0.137917412590E+04   -0.27545E-06   -0.31004E-08  4416   0.244E-04    0.194E-04
DAV:  10    -0.137917412620E+04   -0.29468E-06   -0.17475E-08  3872   0.187E-04    0.144E-04
DAV:  11    -0.137917412647E+04   -0.27075E-06   -0.16918E-08  3904   0.159E-04    0.105E-04
DAV:  12    -0.137917412660E+04   -0.13395E-06   -0.86129E-09  3552   0.104E-04    0.530E-05
DAV:  13    -0.137917412667E+04   -0.64218E-07   -0.21139E-09  3072   0.511E-05    0.453E-05
DAV:  14    -0.137917412675E+04   -0.84648E-07   -0.39044E-09  3264   0.517E-05    0.279E-05
DAV:  15    -0.137917412677E+04   -0.21333E-07   -0.10168E-09  3072   0.414E-05    0.165E-05
DAV:  16    -0.137917412680E+04   -0.24695E-07   -0.76895E-10  3072   0.372E-05    0.127E-05
DAV:  17    -0.137917412682E+04   -0.17200E-07   -0.54893E-10  3072   0.354E-05    0.141E-05
DAV:  18    -0.137917412682E+04   -0.46857E-08   -0.12176E-10  2944   0.226E-05
  14 F= -.13986989E+04 E0= -.13986989E+04  d E =-.678829E-03  mag=     0.0000
       N       E                     dE             d eps       ncg     rms          rms(c)
DAV:   1    -0.137917330112E+04    0.82569E-03   -0.79379E-02  5120   0.181E-01    0.116E-01
DAV:   2    -0.137917319800E+04    0.10312E-03   -0.10229E-03  5152   0.219E-02    0.659E-02
DAV:   3    -0.137917317146E+04    0.26540E-04   -0.51118E-04  5136   0.145E-02    0.217E-02
DAV:   4    -0.137917316223E+04    0.92357E-05   -0.54234E-05  4736   0.483E-03    0.133E-02
DAV:   5    -0.137917316140E+04    0.83221E-06   -0.16205E-05  5440   0.273E-03    0.267E-03
DAV:   6    -0.137917316134E+04    0.56927E-07   -0.12211E-06  4832   0.909E-04    0.108E-03
DAV:   7    -0.137917316135E+04   -0.96334E-08   -0.21270E-07  4864   0.328E-04    0.647E-04
DAV:   8    -0.137917316140E+04   -0.49389E-07   -0.24330E-08  3616   0.178E-04    0.264E-04
DAV:   9    -0.137917316145E+04   -0.55647E-07   -0.12785E-08  3520   0.126E-04    0.133E-04
DAV:  10    -0.137917316152E+04   -0.70140E-07   -0.53190E-09  3168   0.952E-05    0.825E-05
DAV:  11    -0.137917316158E+04   -0.52707E-07   -0.33561E-09  3072   0.754E-05    0.574E-05
DAV:  12    -0.137917316164E+04   -0.61060E-07   -0.48430E-09  3104   0.867E-05    0.493E-05
DAV:  13    -0.137917316167E+04   -0.35754E-07   -0.34591E-09  3072   0.748E-05    0.390E-05
DAV:  14    -0.137917316170E+04   -0.24898E-07   -0.26640E-09  3072   0.646E-05    0.276E-05
DAV:  15    -0.137917316172E+04   -0.22221E-07   -0.19162E-09  3072   0.481E-05    0.323E-05
DAV:  16    -0.137917316173E+04   -0.10827E-07   -0.88564E-10  2944   0.331E-05    0.199E-05
DAV:  17    -0.137917316174E+04   -0.81200E-08   -0.64962E-10  3072   0.332E-05
  15 F= -.13986978E+04 E0= -.13986978E+04  d E =0.106713E-02  mag=    -0.0000
       N       E                     dE             d eps       ncg     rms          rms(c)
DAV:   1    -0.137917383398E+04   -0.67225E-03   -0.73202E-02  4960   0.174E-01    0.809E-02
DAV:   2    -0.137917385855E+04   -0.24564E-04   -0.54093E-04  5248   0.142E-02    0.488E-02
DAV:   3    -0.137917385515E+04    0.33980E-05   -0.86179E-05  5376   0.640E-03    0.646E-03
DAV:   4    -0.137917385507E+04    0.75612E-07   -0.81264E-06  4960   0.193E-03    0.385E-03
DAV:   5    -0.137917385495E+04    0.12507E-06   -0.26519E-06  4864   0.124E-03    0.116E-03
DAV:   6    -0.137917385504E+04   -0.94442E-07   -0.30711E-07  4896   0.519E-04    0.652E-04
DAV:   7    -0.137917385519E+04   -0.14869E-06   -0.54272E-08  3968   0.206E-04    0.257E-04
DAV:   8    -0.137917385534E+04   -0.14879E-06   -0.15206E-08  3488   0.111E-04    0.156E-04
DAV:   9    -0.137917385549E+04   -0.15514E-06   -0.73105E-09  3168   0.914E-05    0.897E-05
DAV:  10    -0.137917385565E+04   -0.15966E-06   -0.91860E-09  3392   0.912E-05    0.601E-05
DAV:  11    -0.137917385574E+04   -0.84692E-07   -0.40422E-09  3072   0.717E-05    0.462E-05
DAV:  12    -0.137917385582E+04   -0.79948E-07   -0.50364E-09  3168   0.758E-05    0.306E-05
DAV:  13    -0.137917385585E+04   -0.30283E-07   -0.21251E-09  3136   0.610E-05    0.251E-05
DAV:  14    -0.137917385589E+04   -0.42390E-07   -0.22198E-09  3008   0.491E-05    0.168E-05
DAV:  15    -0.137917385590E+04   -0.12762E-07   -0.96512E-10  3072   0.369E-05    0.155E-05
DAV:  16    -0.137917385591E+04   -0.52823E-08   -0.31753E-10  3008   0.228E-05
  16 F= -.13986982E+04 E0= -.13986982E+04  d E =-.398796E-03  mag=    -0.0000
       N       E                     dE             d eps       ncg     rms          rms(c)
DAV:   1    -0.137917457025E+04   -0.71435E-03   -0.74738E-02  5056   0.200E-01    0.916E-02
DAV:   2    -0.137917456969E+04    0.56210E-06   -0.83520E-04  5408   0.199E-02    0.568E-02
DAV:   3    -0.137917455608E+04    0.13606E-04   -0.38121E-04  5424   0.135E-02    0.180E-02
DAV:   4    -0.137917454918E+04    0.69069E-05   -0.44940E-05  4768   0.451E-03    0.119E-02
DAV:   5    -0.137917454718E+04    0.19935E-05   -0.19621E-05  4736   0.282E-03    0.255E-03
DAV:   6    -0.137917454730E+04   -0.11704E-06   -0.14140E-06  4896   0.806E-04    0.115E-03
DAV:   7    -0.137917454744E+04   -0.13779E-06   -0.32819E-07  4320   0.383E-04    0.646E-04
DAV:   8    -0.137917454762E+04   -0.18027E-06   -0.58262E-08  3872   0.196E-04    0.256E-04
DAV:   9    -0.137917454778E+04   -0.15911E-06   -0.18633E-08  3616   0.108E-04    0.134E-04
DAV:  10    -0.137917454796E+04   -0.17986E-06   -0.73112E-09  3232   0.760E-05    0.747E-05
DAV:  11    -0.137917454807E+04   -0.11527E-06   -0.42438E-09  3104   0.660E-05    0.570E-05
DAV:  12    -0.137917454821E+04   -0.13280E-06   -0.84746E-09  3296   0.957E-05    0.408E-05
DAV:  13    -0.137917454826E+04   -0.52285E-07   -0.43247E-09  3072   0.896E-05    0.305E-05
DAV:  14    -0.137917454830E+04   -0.37820E-07   -0.25823E-09  3072   0.590E-05    0.230E-05
DAV:  15    -0.137917454833E+04   -0.30239E-07   -0.16514E-09  3072   0.437E-05    0.220E-05
DAV:  16    -0.137917454834E+04   -0.95024E-08   -0.61439E-10  2944   0.283E-05
  17 F= -.13986992E+04 E0= -.13986992E+04  d E =-.101350E-02  mag=     0.0000
       N       E                     dE             d eps       ncg     rms          rms(c)
DAV:   1    -0.137917430776E+04    0.24057E-03   -0.72500E-02  5120   0.197E-01    0.788E-02
DAV:   2    -0.137917432507E+04   -0.17311E-04   -0.48215E-04  5536   0.157E-02    0.472E-02
DAV:   3    -0.137917432191E+04    0.31550E-05   -0.85838E-05  5536   0.672E-03    0.711E-03
DAV:   4    -0.137917432149E+04    0.41923E-06   -0.85563E-06  5248   0.210E-03    0.377E-03
DAV:   5    -0.137917432137E+04    0.12483E-06   -0.27929E-06  5056   0.121E-03    0.120E-03
DAV:   6    -0.137917432139E+04   -0.25277E-07   -0.31853E-07  4800   0.491E-04    0.682E-04
DAV:   7    -0.137917432146E+04   -0.62311E-07   -0.53125E-08  4064   0.201E-04    0.236E-04
DAV:   8    -0.137917432152E+04   -0.64159E-07   -0.10875E-08  3328   0.968E-05    0.127E-04
DAV:   9    -0.137917432160E+04   -0.74870E-07   -0.42743E-09  3104   0.843E-05    0.659E-05
DAV:  10    -0.137917432166E+04   -0.61133E-07   -0.34537E-09  3136   0.767E-05    0.382E-05
DAV:  11    -0.137917432170E+04   -0.45708E-07   -0.29385E-09  3040   0.742E-05    0.283E-05
DAV:  12    -0.137917432174E+04   -0.39596E-07   -0.23936E-09  3008   0.625E-05    0.202E-05
DAV:  13    -0.137917432177E+04   -0.24360E-07   -0.11782E-09  3040   0.382E-05    0.124E-05
DAV:  14    -0.137917432179E+04   -0.23239E-07   -0.81687E-10  3008   0.284E-05    0.986E-06
DAV:  15    -0.137917432180E+04   -0.10215E-07   -0.26376E-10  3072   0.205E-05    0.849E-06
DAV:  16    -0.137917432180E+04   -0.43074E-08   -0.59292E-11  3072   0.145E-05
  18 F= -.13986990E+04 E0= -.13986990E+04  d E =0.267713E-03  mag=    -0.0000
       N       E                     dE             d eps       ncg     rms          rms(c)
DAV:   1    -0.137917370612E+04    0.61568E-03   -0.83728E-02  5184   0.209E-01    0.136E-01
DAV:   2    -0.137917351471E+04    0.19141E-03   -0.14517E-03  5376   0.294E-02    0.762E-02
DAV:   3    -0.137917347078E+04    0.43928E-04   -0.79341E-04  5536   0.181E-02    0.257E-02
DAV:   4    -0.137917345739E+04    0.13390E-04   -0.92124E-05  5120   0.623E-03    0.153E-02
DAV:   5    -0.137917345677E+04    0.62589E-06   -0.21101E-05  5664   0.303E-03    0.290E-03
DAV:   6    -0.137917345667E+04    0.97280E-07   -0.15626E-06  5056   0.917E-04    0.118E-03
DAV:   7    -0.137917345665E+04    0.16153E-07   -0.31076E-07  5184   0.369E-04    0.833E-04
DAV:   8    -0.137917345668E+04   -0.22934E-07   -0.28005E-08  3808   0.168E-04    0.319E-04
DAV:   9    -0.137917345671E+04   -0.32218E-07   -0.17659E-08  3776   0.128E-04    0.134E-04
DAV:  10    -0.137917345674E+04   -0.36700E-07   -0.33745E-09  3200   0.708E-05    0.852E-05
DAV:  11    -0.137917345679E+04   -0.44834E-07   -0.18824E-09  3072   0.531E-05    0.485E-05
DAV:  12    -0.137917345684E+04   -0.52925E-07   -0.25519E-09  3136   0.632E-05    0.322E-05
DAV:  13    -0.137917345688E+04   -0.41560E-07   -0.26876E-09  3104   0.594E-05    0.332E-05
DAV:  14    -0.137917345691E+04   -0.25218E-07   -0.18272E-09  3072   0.567E-05    0.198E-05
DAV:  15    -0.137917345692E+04   -0.15527E-07   -0.13655E-09  3072   0.457E-05    0.151E-05
DAV:  16    -0.137917345693E+04   -0.85565E-08   -0.56072E-10  3072   0.271E-05
  19 F= -.13986978E+04 E0= -.13986978E+04  d E =0.117928E-02  mag=    -0.0000
       N       E                     dE             d eps       ncg     rms          rms(c)
DAV:   1    -0.137917407600E+04   -0.61908E-03   -0.78471E-02  5184   0.208E-01    0.111E-01
DAV:   2    -0.137917401036E+04    0.65645E-04   -0.11697E-03  5216   0.259E-02    0.670E-02
DAV:   3    -0.137917398598E+04    0.24378E-04   -0.65571E-04  5440   0.167E-02    0.239E-02
DAV:   4    -0.137917397392E+04    0.12055E-04   -0.79469E-05  4768   0.570E-03    0.151E-02
DAV:   5    -0.137917397174E+04    0.21793E-05   -0.25818E-05  5056   0.323E-03    0.320E-03
DAV:   6    -0.137917397180E+04   -0.59415E-07   -0.24022E-06  4704   0.103E-03    0.131E-03
DAV:   7    -0.137917397199E+04   -0.18945E-06   -0.38240E-07  4992   0.396E-04    0.967E-04
DAV:   8    -0.137917397225E+04   -0.25611E-06   -0.88004E-08  4096   0.231E-04    0.243E-04
DAV:   9    -0.137917397240E+04   -0.14890E-06   -0.19825E-08  3712   0.122E-04    0.185E-04
DAV:  10    -0.137917397255E+04   -0.15339E-06   -0.85575E-09  3520   0.963E-05    0.895E-05
DAV:  11    -0.137917397265E+04   -0.10234E-06   -0.36116E-09  3168   0.726E-05    0.613E-05
DAV:  12    -0.137917397277E+04   -0.11372E-06   -0.54465E-09  3264   0.787E-05    0.397E-05
DAV:  13    -0.137917397284E+04   -0.74418E-07   -0.44936E-09  3168   0.866E-05    0.315E-05
DAV:  14    -0.137917397289E+04   -0.48458E-07   -0.37391E-09  3072   0.793E-05    0.251E-05
DAV:  15    -0.137917397292E+04   -0.29642E-07   -0.23586E-09  3072   0.561E-05    0.186E-05
DAV:  16    -0.137917397294E+04   -0.16313E-07   -0.10374E-09  3072   0.331E-05    0.144E-05
DAV:  17    -0.137917397295E+04   -0.12282E-07   -0.64026E-10  3072   0.282E-05    0.203E-05
DAV:  18    -0.137917397295E+04   -0.17899E-08   -0.15361E-10  2944   0.186E-05
  20 F= -.13986987E+04 E0= -.13986987E+04  d E =-.893234E-03  mag=    -0.0000
       N       E                     dE             d eps       ncg     rms          rms(c)
DAV:   1    -0.137917364950E+04    0.32345E-03   -0.79173E-02  4352   0.190E-01    0.115E-01
DAV:   2    -0.137917354628E+04    0.10322E-03   -0.10872E-03  5056   0.235E-02    0.663E-02
DAV:   3    -0.137917351801E+04    0.28266E-04   -0.60613E-04  5056   0.163E-02    0.233E-02
DAV:   4    -0.137917350651E+04    0.11497E-04   -0.61101E-05  4896   0.548E-03    0.148E-02
DAV:   5    -0.137917350510E+04    0.14154E-05   -0.22149E-05  5152   0.326E-03    0.290E-03
DAV:   6    -0.137917350517E+04   -0.74564E-07   -0.20014E-06  4864   0.109E-03    0.116E-03
DAV:   7    -0.137917350543E+04   -0.25566E-06   -0.26660E-07  4864   0.378E-04    0.987E-04
DAV:   8    -0.137917350568E+04   -0.25521E-06   -0.46931E-08  3888   0.190E-04    0.328E-04
DAV:   9    -0.137917350592E+04   -0.23785E-06   -0.26955E-08  3776   0.142E-04    0.193E-04
DAV:  10    -0.137917350608E+04   -0.16124E-06   -0.44113E-09  3168   0.734E-05    0.112E-04
DAV:  11    -0.137917350631E+04   -0.22622E-06   -0.98635E-09  3520   0.825E-05    0.519E-05
DAV:  12    -0.137917350645E+04   -0.14211E-06   -0.51579E-09  3232   0.808E-05    0.489E-05
DAV:  13    -0.137917350655E+04   -0.10202E-06   -0.48107E-09  3232   0.885E-05    0.360E-05
DAV:  14    -0.137917350662E+04   -0.67841E-07   -0.38828E-09  3168   0.830E-05    0.203E-05
DAV:  15    -0.137917350666E+04   -0.41357E-07   -0.19912E-09  3072   0.570E-05    0.227E-05
DAV:  16    -0.137917350669E+04   -0.32451E-07   -0.10883E-09  3072   0.390E-05    0.172E-05
DAV:  17    -0.137917350671E+04   -0.13548E-07   -0.39453E-10  3072   0.250E-05    0.110E-05
DAV:  18    -0.137917350671E+04   -0.51368E-08   -0.71662E-11  2880   0.163E-05
  21 F= -.13986982E+04 E0= -.13986982E+04  d E =0.427687E-03  mag=    -0.0000
       N       E                     dE             d eps       ncg     rms          rms(c)
DAV:   1    -0.137917421953E+04   -0.71282E-03   -0.71846E-02  4352   0.184E-01    0.756E-02
DAV:   2    -0.137917424653E+04   -0.27003E-04   -0.48205E-04  5024   0.137E-02    0.459E-02
DAV:   3    -0.137917424695E+04   -0.41710E-06   -0.65909E-05  5568   0.596E-03    0.512E-03
DAV:   4    -0.137917424713E+04   -0.17753E-06   -0.64879E-06  5344   0.173E-03    0.323E-03
DAV:   5    -0.137917424725E+04   -0.12036E-06   -0.18582E-06  5056   0.114E-03    0.106E-03
DAV:   6    -0.137917424754E+04   -0.28881E-06   -0.23938E-07  5056   0.476E-04    0.587E-04
DAV:   7    -0.137917424787E+04   -0.32978E-06   -0.44491E-08  3808   0.189E-04    0.284E-04
DAV:   8    -0.137917424826E+04   -0.39341E-06   -0.23106E-08  3872   0.127E-04    0.177E-04
DAV:   9    -0.137917424864E+04   -0.37630E-06   -0.12482E-08  3616   0.108E-04    0.102E-04
DAV:  10    -0.137917424900E+04   -0.36137E-06   -0.14413E-08  3616   0.935E-05    0.807E-05
DAV:  11    -0.137917424918E+04   -0.17749E-06   -0.54766E-09  3168   0.911E-05    0.458E-05
DAV:  12    -0.137917424932E+04   -0.14540E-06   -0.77991E-09  3360   0.998E-05    0.509E-05
DAV:  13    -0.137917424938E+04   -0.61176E-07   -0.31406E-09  3072   0.807E-05    0.351E-05
DAV:  14    -0.137917424944E+04   -0.59212E-07   -0.31894E-09  3008   0.678E-05    0.361E-05
DAV:  15    -0.137917424946E+04   -0.17011E-07   -0.12533E-09  3072   0.470E-05    0.217E-05
DAV:  16    -0.137917424947E+04   -0.69704E-08   -0.58059E-10  3072   0.298E-05
  22 F= -.13986988E+04 E0= -.13986988E+04  d E =-.556324E-03  mag=     0.0000
       N       E                     dE             d eps       ncg     rms          rms(c)
DAV:   1    -0.137917423559E+04    0.13871E-04   -0.74924E-02  4416   0.202E-01    0.931E-02
DAV:   2    -0.137917423332E+04    0.22698E-05   -0.89940E-04  4832   0.207E-02    0.570E-02
DAV:   3    -0.137917422453E+04    0.87913E-05   -0.38193E-04  5472   0.132E-02    0.186E-02
DAV:   4    -0.137917421704E+04    0.74864E-05   -0.40782E-05  5088   0.440E-03    0.120E-02
DAV:   5    -0.137917421538E+04    0.16643E-05   -0.20598E-05  5120   0.291E-03    0.204E-03
DAV:   6    -0.137917421549E+04   -0.11837E-06   -0.11111E-06  4608   0.763E-04    0.108E-03
DAV:   7    -0.137917421557E+04   -0.75219E-07   -0.24275E-07  4864   0.372E-04    0.730E-04
DAV:   8    -0.137917421568E+04   -0.10997E-06   -0.49583E-08  3808   0.196E-04    0.255E-04
DAV:   9    -0.137917421578E+04   -0.97862E-07   -0.18679E-08  3680   0.124E-04    0.152E-04
DAV:  10    -0.137917421589E+04   -0.11669E-06   -0.66989E-09  3264   0.109E-04    0.861E-05
DAV:  11    -0.137917421597E+04   -0.76281E-07   -0.63726E-09  3328   0.972E-05    0.524E-05
DAV:  12    -0.137917421603E+04   -0.60507E-07   -0.54924E-09  3136   0.102E-04    0.346E-05
DAV:  13    -0.137917421608E+04   -0.49971E-07   -0.50467E-09  3136   0.869E-05    0.318E-05
DAV:  14    -0.137917421610E+04   -0.18554E-07   -0.18791E-09  3072   0.519E-05    0.244E-05
DAV:  15    -0.137917421613E+04   -0.27838E-07   -0.15809E-09  3024   0.426E-05    0.201E-05
DAV:  16    -0.137917421614E+04   -0.11860E-07   -0.75551E-10  3072   0.308E-05    0.156E-05
DAV:  17    -0.137917421614E+04   -0.29249E-08   -0.22829E-10  2944   0.212E-05
  23 F= -.13986989E+04 E0= -.13986989E+04  d E =-.137780E-03  mag=     0.0000
       N       E                     dE             d eps       ncg     rms          rms(c)
DAV:   1    -0.137917336052E+04    0.85562E-03   -0.78900E-02  4512   0.197E-01    0.116E-01
DAV:   2    -0.137917324935E+04    0.11117E-03   -0.10675E-03  4800   0.238E-02    0.654E-02
DAV:   3    -0.137917322215E+04    0.27201E-04   -0.51902E-04  5120   0.143E-02    0.221E-02
DAV:   4    -0.137917321320E+04    0.89470E-05   -0.52691E-05  4768   0.476E-03    0.141E-02
DAV:   5    -0.137917321221E+04    0.98765E-06   -0.17007E-05  5568   0.277E-03    0.277E-03
DAV:   6    -0.137917321235E+04   -0.13997E-06   -0.15623E-06  4704   0.876E-04    0.113E-03
DAV:   7    -0.137917321261E+04   -0.26163E-06   -0.28440E-07  5248   0.392E-04    0.829E-04
DAV:   8    -0.137917321287E+04   -0.25709E-06   -0.40509E-08  4032   0.187E-04    0.333E-04
DAV:   9    -0.137917321313E+04   -0.26345E-06   -0.25090E-08  3776   0.124E-04    0.191E-04
DAV:  10    -0.137917321336E+04   -0.22961E-06   -0.81298E-09  3392   0.943E-05    0.992E-05
DAV:  11    -0.137917321359E+04   -0.22656E-06   -0.10138E-08  3520   0.961E-05    0.682E-05
DAV:  12    -0.137917321374E+04   -0.15370E-06   -0.66999E-09  3200   0.916E-05    0.528E-05
DAV:  13    -0.137917321383E+04   -0.83935E-07   -0.37923E-09  3136   0.712E-05    0.341E-05
DAV:  14    -0.137917321390E+04   -0.70897E-07   -0.32839E-09  3008   0.607E-05    0.186E-05
DAV:  15    -0.137917321394E+04   -0.41720E-07   -0.22666E-09  3008   0.522E-05    0.211E-05
DAV:  16    -0.137917321396E+04   -0.19223E-07   -0.10295E-09  3072   0.363E-05    0.176E-05
DAV:  17    -0.137917321397E+04   -0.15425E-07   -0.48078E-10  3040   0.260E-05    0.100E-05
DAV:  18    -0.137917321398E+04   -0.70868E-08   -0.16315E-10  3072   0.177E-05
  24 F= -.13986979E+04 E0= -.13986979E+04  d E =0.100983E-02  mag=     0.0000
       N       E                     dE             d eps       ncg     rms          rms(c)
DAV:   1    -0.137917437780E+04   -0.11638E-02   -0.71852E-02  4480   0.192E-01    0.777E-02
DAV:   2    -0.137917439041E+04   -0.12613E-04   -0.45571E-04  4704   0.147E-02    0.465E-02
DAV:   3    -0.137917439290E+04   -0.24918E-05   -0.97272E-05  5312   0.634E-03    0.817E-03
DAV:   4    -0.137917439185E+04    0.10503E-05   -0.86109E-06  4832   0.209E-03    0.477E-03
DAV:   5    -0.137917439191E+04   -0.57247E-07   -0.43860E-06  4896   0.146E-03    0.128E-03
DAV:   6    -0.137917439214E+04   -0.22528E-06   -0.48492E-07  4800   0.555E-04    0.754E-04
DAV:   7    -0.137917439242E+04   -0.28088E-06   -0.69323E-08  4128   0.223E-04    0.322E-04
DAV:   8    -0.137917439275E+04   -0.33018E-06   -0.24382E-08  3744   0.120E-04    0.195E-04
DAV:   9    -0.137917439312E+04   -0.37035E-06   -0.14842E-08  3648   0.110E-04    0.102E-04
DAV:  10    -0.137917439338E+04   -0.26370E-06   -0.87739E-09  3360   0.846E-05    0.827E-05
DAV:  11    -0.137917439360E+04   -0.21786E-06   -0.88454E-09  3456   0.101E-04    0.469E-05
DAV:  12    -0.137917439372E+04   -0.11805E-06   -0.67687E-09  3296   0.123E-04    0.364E-05
DAV:  13    -0.137917439379E+04   -0.70693E-07   -0.45771E-09  3136   0.991E-05    0.251E-05
DAV:  14    -0.137917439383E+04   -0.42259E-07   -0.23190E-09  3008   0.577E-05    0.144E-05
DAV:  15    -0.137917439384E+04   -0.12180E-07   -0.97881E-10  3072   0.377E-05    0.979E-06
DAV:  16    -0.137917439385E+04   -0.83382E-08   -0.48484E-10  3008   0.261E-05
  25 F= -.13986989E+04 E0= -.13986989E+04  d E =-.994289E-03  mag=     0.0000
       N       E                     dE             d eps       ncg     rms          rms(c)
DAV:   1    -0.137917357718E+04    0.81666E-03   -0.78000E-02  4640   0.198E-01    0.109E-01
DAV:   2    -0.137917352720E+04    0.49975E-04   -0.12055E-03  5216   0.241E-02    0.663E-02
DAV:   3    -0.137917350158E+04    0.25620E-04   -0.63498E-04  5376   0.172E-02    0.236E-02
DAV:   4    -0.137917349048E+04    0.11105E-04   -0.72446E-05  4928   0.588E-03    0.151E-02
DAV:   5    -0.137917348880E+04    0.16810E-05   -0.27475E-05  5088   0.354E-03    0.273E-03
DAV:   6    -0.137917348889E+04   -0.90382E-07   -0.17667E-06  4992   0.107E-03    0.126E-03
DAV:   7    -0.137917348897E+04   -0.77256E-07   -0.34428E-07  4992   0.438E-04    0.842E-04
DAV:   8    -0.137917348906E+04   -0.98400E-07   -0.45207E-08  3808   0.217E-04    0.363E-04
DAV:   9    -0.137917348915E+04   -0.89669E-07   -0.21925E-08  3808   0.154E-04    0.153E-04
DAV:  10    -0.137917348924E+04   -0.83775E-07   -0.57978E-09  3168   0.100E-04    0.974E-05
DAV:  11    -0.137917348932E+04   -0.78318E-07   -0.43580E-09  3168   0.773E-05    0.632E-05
DAV:  12    -0.137917348938E+04   -0.69282E-07   -0.42710E-09  3168   0.757E-05    0.365E-05
DAV:  13    -0.137917348943E+04   -0.44078E-07   -0.35671E-09  3104   0.734E-05    0.335E-05
DAV:  14    -0.137917348946E+04   -0.28216E-07   -0.22911E-09  3072   0.581E-05    0.227E-05
DAV:  15    -0.137917348948E+04   -0.24709E-07   -0.16479E-09  3072   0.399E-05    0.157E-05
DAV:  16    -0.137917348949E+04   -0.99972E-08   -0.72794E-10  3072   0.302E-05
  26 F= -.13986981E+04 E0= -.13986981E+04  d E =0.767598E-03  mag=     0.0000
       N       E                     dE             d eps       ncg     rms          rms(c)
DAV:   1    -0.137917338049E+04    0.10899E-03   -0.72795E-02  4672   0.161E-01    0.795E-02
DAV:   2    -0.137917340262E+04   -0.22130E-04   -0.48184E-04  4704   0.131E-02    0.480E-02
DAV:   3    -0.137917339938E+04    0.32430E-05   -0.77066E-05  4864   0.597E-03    0.595E-03
DAV:   4    -0.137917339929E+04    0.83222E-07   -0.79898E-06  4544   0.188E-03    0.348E-03
DAV:   5    -0.137917339931E+04   -0.19878E-07   -0.28928E-06  4640   0.128E-03    0.118E-03
DAV:   6    -0.137917339943E+04   -0.11310E-06   -0.37537E-07  4576   0.511E-04    0.690E-04
DAV:   7    -0.137917339963E+04   -0.20437E-06   -0.73242E-08  4160   0.233E-04    0.252E-04
DAV:   8    -0.137917339979E+04   -0.15642E-06   -0.17257E-08  3776   0.129E-04    0.180E-04
DAV:   9    -0.137917339999E+04   -0.20534E-06   -0.12985E-08  3712   0.133E-04    0.985E-05
DAV:  10    -0.137917340016E+04   -0.16730E-06   -0.11426E-08  3616   0.115E-04    0.605E-05
DAV:  11    -0.137917340023E+04   -0.70489E-07   -0.45474E-09  3008   0.907E-05    0.437E-05
DAV:  12    -0.137917340030E+04   -0.70882E-07   -0.51489E-09  3104   0.834E-05    0.286E-05
DAV:  13    -0.137917340035E+04   -0.51325E-07   -0.36049E-09  3040   0.678E-05    0.212E-05
DAV:  14    -0.137917340038E+04   -0.32102E-07   -0.23489E-09  2944   0.479E-05    0.132E-05
DAV:  15    -0.137917340040E+04   -0.20038E-07   -0.15691E-09  3072   0.375E-05    0.115E-05
DAV:  16    -0.137917340041E+04   -0.72905E-08   -0.58694E-10  2944   0.236E-05
  27 F= -.13986980E+04 E0= -.13986980E+04  d E =0.102640E-03  mag=    -0.0000
       N       E                     dE             d eps       ncg     rms          rms(c)
DAV:   1    -0.137917463926E+04   -0.12389E-02   -0.74474E-02  4864   0.163E-01    0.910E-02
DAV:   2    -0.137917462106E+04    0.18205E-04   -0.63713E-04  5248   0.160E-02    0.539E-02
DAV:   3    -0.137917461559E+04    0.54710E-05   -0.23740E-04  5568   0.105E-02    0.144E-02
DAV:   4    -0.137917461120E+04    0.43843E-05   -0.27274E-05  5024   0.362E-03    0.860E-03
DAV:   5    -0.137917461093E+04    0.27451E-06   -0.13603E-05  4672   0.247E-03    0.180E-03
DAV:   6    -0.137917461096E+04   -0.34808E-07   -0.82875E-07  4768   0.838E-04    0.881E-04
DAV:   7    -0.137917461108E+04   -0.11508E-06   -0.91468E-08  4560   0.276E-04    0.440E-04
DAV:   8    -0.137917461124E+04   -0.15898E-06   -0.31924E-08  3936   0.181E-04    0.188E-04
DAV:   9    -0.137917461136E+04   -0.11803E-06   -0.94209E-09  3328   0.131E-04    0.113E-04
DAV:  10    -0.137917461149E+04   -0.13076E-06   -0.74820E-09  3488   0.110E-04    0.766E-05
DAV:  11    -0.137917461158E+04   -0.94558E-07   -0.49759E-09  3296   0.916E-05    0.574E-05
DAV:  12    -0.137917461166E+04   -0.78464E-07   -0.48209E-09  3264   0.936E-05    0.342E-05
DAV:  13    -0.137917461170E+04   -0.41502E-07   -0.38961E-09  3104   0.943E-05    0.301E-05
DAV:  14    -0.137917461173E+04   -0.27299E-07   -0.27037E-09  3072   0.729E-05    0.188E-05
DAV:  15    -0.137917461174E+04   -0.15381E-07   -0.13661E-09  3072   0.443E-05    0.184E-05
DAV:  16    -0.137917461175E+04   -0.46275E-08   -0.47175E-10  2944   0.267E-05
  28 F= -.13986990E+04 E0= -.13986990E+04  d E =-.933180E-03  mag=     0.0000
       N       E                     dE             d eps       ncg     rms          rms(c)
DAV:   1    -0.137917427033E+04    0.34141E-03   -0.73489E-02  4960   0.195E-01    0.829E-02
DAV:   2    -0.137917427726E+04   -0.69302E-05   -0.44632E-04  5184   0.151E-02    0.495E-02
DAV:   3    -0.137917427529E+04    0.19774E-05   -0.75896E-05  5376   0.623E-03    0.682E-03
DAV:   4    -0.137917427487E+04    0.41233E-06   -0.72523E-06  4576   0.184E-03    0.392E-03
DAV:   5    -0.137917427483E+04    0.42084E-07   -0.33044E-06  4704   0.126E-03    0.131E-03
DAV:   6    -0.137917427485E+04   -0.22046E-07   -0.43091E-07  4768   0.568E-04    0.575E-04
DAV:   7    -0.137917427496E+04   -0.10559E-06   -0.55309E-08  3968   0.216E-04    0.223E-04
DAV:   8    -0.137917427507E+04   -0.11300E-06   -0.13475E-08  3552   0.994E-05    0.127E-04
DAV:   9    -0.137917427518E+04   -0.11010E-06   -0.38813E-09  3200   0.823E-05    0.715E-05
DAV:  10    -0.137917427533E+04   -0.14331E-06   -0.78864E-09  3488   0.885E-05    0.595E-05
DAV:  11    -0.137917427539E+04   -0.62137E-07   -0.31797E-09  2976   0.909E-05    0.391E-05
DAV:  12    -0.137917427547E+04   -0.83179E-07   -0.50047E-09  3296   0.873E-05    0.514E-05
DAV:  13    -0.137917427549E+04   -0.20911E-07   -0.13378E-09  2944   0.532E-05    0.400E-05
DAV:  14    -0.137917427553E+04   -0.33193E-07   -0.14700E-09  3072   0.482E-05    0.335E-05
DAV:  15    -0.137917427556E+04   -0.34750E-07   -0.10335E-09  3072   0.406E-05    0.150E-05
DAV:  16    -0.137917427557E+04   -0.13795E-07   -0.47952E-10  3072   0.273E-05    0.146E-05
DAV:  17    -0.137917427558E+04   -0.79453E-08   -0.15659E-10  3072   0.176E-05
  29 F= -.13986990E+04 E0= -.13986990E+04  d E =0.267908E-04  mag=    -0.0000
       N       E                     dE             d eps       ncg     rms          rms(c)
DAV:   1    -0.137917393895E+04    0.33663E-03   -0.72542E-02  5056   0.197E-01    0.798E-02
DAV:   2    -0.137917394830E+04   -0.93509E-05   -0.47588E-04  5248   0.161E-02    0.479E-02
DAV:   3    -0.137917394430E+04    0.39990E-05   -0.11029E-04  5440   0.763E-03    0.839E-03
DAV:   4    -0.137917394354E+04    0.76358E-06   -0.11094E-05  5024   0.246E-03    0.491E-03
DAV:   5    -0.137917394342E+04    0.11256E-06   -0.50944E-06  4768   0.164E-03    0.139E-03
DAV:   6    -0.137917394348E+04   -0.54744E-07   -0.53476E-07  4720   0.618E-04    0.777E-04
DAV:   7    -0.137917394363E+04   -0.15077E-06   -0.69066E-08  4240   0.247E-04    0.287E-04
DAV:   8    -0.137917394378E+04   -0.15268E-06   -0.19142E-08  3680   0.119E-04    0.165E-04
DAV:   9    -0.137917394393E+04   -0.14622E-06   -0.59071E-09  3360   0.857E-05    0.884E-05
DAV:  10    -0.137917394408E+04   -0.15354E-06   -0.64385E-09  3456   0.747E-05    0.582E-05
DAV:  11    -0.137917394417E+04   -0.91095E-07   -0.30693E-09  3008   0.605E-05    0.454E-05
DAV:  12    -0.137917394428E+04   -0.10608E-06   -0.54264E-09  3392   0.779E-05    0.281E-05
DAV:  13    -0.137917394432E+04   -0.40425E-07   -0.21967E-09  3072   0.705E-05    0.260E-05
DAV:  14    -0.137917394437E+04   -0.46784E-07   -0.17203E-09  3040   0.490E-05    0.215E-05
DAV:  15    -0.137917394439E+04   -0.28405E-07   -0.10443E-09  3072   0.366E-05    0.198E-05
DAV:  16    -0.137917394440E+04   -0.86293E-08   -0.33644E-10  2944   0.230E-05
  30 F= -.13986986E+04 E0= -.13986986E+04  d E =0.345304E-03  mag=    -0.0000
       N       E                     dE             d eps       ncg     rms          rms(c)
DAV:   1    -0.137917360034E+04    0.34405E-03   -0.83816E-02  5056   0.211E-01    0.137E-01
DAV:   2    -0.137917341101E+04    0.18934E-03   -0.15999E-03  5280   0.317E-02    0.789E-02
DAV:   3    -0.137917336425E+04    0.46752E-04   -0.97632E-04  5440   0.217E-02    0.300E-02
DAV:   4    -0.137917334511E+04    0.19146E-04   -0.11312E-04  5376   0.726E-03    0.183E-02
DAV:   5    -0.137917334323E+04    0.18786E-05   -0.29367E-05  5872   0.371E-03    0.381E-03
DAV:   6    -0.137917334288E+04    0.35382E-06   -0.26042E-06  5088   0.137E-03    0.121E-03
DAV:   7    -0.137917334284E+04    0.33135E-07   -0.32884E-07  5072   0.468E-04    0.868E-04
DAV:   8    -0.137917334286E+04   -0.13431E-07   -0.51006E-08  4336   0.282E-04    0.396E-04
DAV:   9    -0.137917334288E+04   -0.26397E-07   -0.24424E-08  3792   0.216E-04    0.172E-04
DAV:  10    -0.137917334294E+04   -0.61729E-07   -0.92590E-09  3280   0.154E-04    0.126E-04
DAV:  11    -0.137917334300E+04   -0.53507E-07   -0.52609E-09  3312   0.118E-04    0.103E-04
DAV:  12    -0.137917334308E+04   -0.85565E-07   -0.79787E-09  3296   0.146E-04    0.740E-05
DAV:  13    -0.137917334314E+04   -0.51732E-07   -0.59365E-09  3344   0.109E-04    0.741E-05
DAV:  14    -0.137917334317E+04   -0.31796E-07   -0.28544E-09  3072   0.764E-05    0.393E-05
DAV:  15    -0.137917334320E+04   -0.34692E-07   -0.28538E-09  3072   0.669E-05    0.450E-05
DAV:  16    -0.137917334322E+04   -0.15498E-07   -0.13918E-09  3072   0.495E-05    0.366E-05
DAV:  17    -0.137917334323E+04   -0.10972E-07   -0.76760E-10  2944   0.395E-05    0.137E-05
DAV:  18    -0.137917334324E+04   -0.16254E-07   -0.58920E-10  3072   0.331E-05    0.358E-05
DAV:  19    -0.137917334325E+04   -0.45402E-08   -0.11022E-10  2944   0.208E-05
  31 F= -.13986979E+04 E0= -.13986979E+04  d E =0.682244E-03  mag=    -0.0000
       N       E                     dE             d eps       ncg     rms          rms(c)
DAV:   1    -0.137917457320E+04   -0.12300E-02   -0.77210E-02  5120   0.207E-01    0.107E-01
DAV:   2    -0.137917451841E+04    0.54793E-04   -0.14635E-03  5760   0.285E-02    0.651E-02
DAV:   3    -0.137917447296E+04    0.45451E-04   -0.62554E-04  5760   0.225E-02    0.255E-02
DAV:   4    -0.137917446287E+04    0.10090E-04   -0.73237E-05  5664   0.765E-03    0.159E-02
DAV:   5    -0.137917446023E+04    0.26402E-05   -0.27963E-05  5568   0.477E-03    0.432E-03
DAV:   6    -0.137917445985E+04    0.37940E-06   -0.25676E-06  6336   0.194E-03    0.144E-03
DAV:   7    -0.137917445988E+04   -0.28260E-07   -0.22852E-07  5216   0.593E-04    0.867E-04
DAV:   8    -0.137917445994E+04   -0.62239E-07   -0.87200E-08  5216   0.511E-04    0.473E-04
DAV:   9    -0.137917446009E+04   -0.14791E-06   -0.45659E-08  4560   0.377E-04    0.286E-04
DAV:  10    -0.137917446029E+04   -0.19935E-06   -0.34175E-08  4384   0.294E-04    0.195E-04
DAV:  11    -0.137917446053E+04   -0.23645E-06   -0.12685E-08  3584   0.219E-04    0.126E-04
DAV:  12    -0.137917446073E+04   -0.20074E-06   -0.18348E-08  4000   0.189E-04    0.765E-05
DAV:  13    -0.137917446088E+04   -0.15114E-06   -0.80642E-09  3520   0.110E-04    0.641E-05
DAV:  14    -0.137917446095E+04   -0.75903E-07   -0.29386E-09  3072   0.664E-05    0.379E-05
DAV:  15    -0.137917446102E+04   -0.70286E-07   -0.37032E-09  3136   0.737E-05    0.272E-05
DAV:  16    -0.137917446105E+04   -0.28303E-07   -0.24384E-09  3072   0.759E-05    0.242E-05
DAV:  17    -0.137917446107E+04   -0.22483E-07   -0.15905E-09  3072   0.545E-05    0.114E-05
DAV:  18    -0.137917446108E+04   -0.97789E-08   -0.73758E-10  3072   0.362E-05
  32 F= -.13986990E+04 E0= -.13986990E+04  d E =-.110151E-02  mag=    -0.0000
       N       E                     dE             d eps       ncg     rms          rms(c)
DAV:   1    -0.137917440444E+04    0.56632E-04   -0.68599E-02  5120   0.155E-01    0.724E-02
DAV:   2    -0.137917434202E+04    0.62418E-04   -0.64456E-04  5728   0.156E-02    0.394E-02
DAV:   3    -0.137917430568E+04    0.36343E-04   -0.11438E-04  6080   0.950E-03    0.123E-02
DAV:   4    -0.137917430168E+04    0.40047E-05   -0.15034E-05  5920   0.387E-03    0.425E-03
DAV:   5    -0.137917430155E+04    0.12734E-06   -0.27054E-06  5600   0.168E-03    0.203E-03
DAV:   6    -0.137917430188E+04   -0.32999E-06   -0.34346E-07  6048   0.742E-04    0.117E-03
DAV:   7    -0.137917430260E+04   -0.72418E-06   -0.12303E-07  5376   0.471E-04    0.592E-04
DAV:   8    -0.137917430349E+04   -0.88372E-06   -0.69566E-08  4768   0.354E-04    0.349E-04
DAV:   9    -0.137917430446E+04   -0.97115E-06   -0.55076E-08  4320   0.269E-04    0.217E-04
DAV:  10    -0.137917430538E+04   -0.92424E-06   -0.50232E-08  4192   0.217E-04    0.132E-04
DAV:  11    -0.137917430596E+04   -0.57534E-06   -0.26026E-08  3968   0.139E-04    0.970E-05
DAV:  12    -0.137917430636E+04   -0.40623E-06   -0.11127E-08  3488   0.983E-05    0.552E-05
DAV:  13    -0.137917430663E+04   -0.26198E-06   -0.87496E-09  3328   0.929E-05    0.395E-05
DAV:  14    -0.137917430676E+04   -0.13784E-06   -0.58945E-09  3104   0.107E-04    0.273E-05
DAV:  15    -0.137917430687E+04   -0.10262E-06   -0.56156E-09  3168   0.934E-05    0.197E-05
DAV:  16    -0.137917430691E+04   -0.40658E-07   -0.17922E-09  3072   0.502E-05    0.146E-05
DAV:  17    -0.137917430695E+04   -0.38839E-07   -0.12643E-09  3040   0.379E-05    0.125E-05
DAV:  18    -0.137917430695E+04   -0.80618E-08   -0.42087E-10  3072   0.244E-05
  33 F= -.13986989E+04 E0= -.13986989E+04  d E =0.907360E-04  mag=    -0.0000
       N       E                     dE             d eps       ncg     rms          rms(c)
DAV:   1    -0.137917467342E+04   -0.36647E-03   -0.71427E-02  5120   0.157E-01    0.733E-02
DAV:   2    -0.137917469247E+04   -0.19055E-04   -0.88241E-04  5568   0.169E-02    0.468E-02
DAV:   3    -0.137917465324E+04    0.39236E-04   -0.13035E-04  6016   0.139E-02    0.118E-02
DAV:   4    -0.137917465224E+04    0.99586E-06   -0.15851E-05  5792   0.470E-03    0.581E-03
DAV:   5    -0.137917465238E+04   -0.13984E-06   -0.61047E-06  5680   0.385E-03    0.245E-03
DAV:   6    -0.137917465289E+04   -0.51250E-06   -0.85668E-07  6496   0.124E-03    0.142E-03
DAV:   7    -0.137917465365E+04   -0.76147E-06   -0.33396E-07  5120   0.761E-04    0.901E-04
DAV:   8    -0.137917465488E+04   -0.12220E-05   -0.12722E-07  5280   0.631E-04    0.461E-04
DAV:   9    -0.137917465610E+04   -0.12248E-05   -0.14561E-07  4768   0.539E-04    0.372E-04
DAV:  10    -0.137917465745E+04   -0.13433E-05   -0.10701E-07  4528   0.302E-04    0.203E-04
DAV:  11    -0.137917465809E+04   -0.64558E-06   -0.32271E-08  4160   0.172E-04    0.145E-04
DAV:  12    -0.137917465862E+04   -0.52460E-06   -0.22773E-08  3936   0.141E-04    0.912E-05
DAV:  13    -0.137917465894E+04   -0.32244E-06   -0.93177E-09  3296   0.842E-05    0.639E-05
DAV:  14    -0.137917465920E+04   -0.26701E-06   -0.10851E-08  3488   0.782E-05    0.396E-05
DAV:  15    -0.137917465933E+04   -0.12727E-06   -0.37388E-09  3072   0.735E-05    0.291E-05
DAV:  16    -0.137917465943E+04   -0.94704E-07   -0.37502E-09  3072   0.675E-05    0.254E-05
DAV:  17    -0.137917465948E+04   -0.48894E-07   -0.18312E-09  3072   0.512E-05    0.209E-05
DAV:  18    -0.137917465951E+04   -0.32189E-07   -0.11255E-09  3072   0.404E-05    0.103E-05
DAV:  19    -0.137917465952E+04   -0.14552E-07   -0.53825E-10  3072   0.308E-05    0.169E-05
DAV:  20    -0.137917465953E+04   -0.43219E-08   -0.10201E-10  2944   0.154E-05
  34 F= -.13986992E+04 E0= -.13986992E+04  d E =-.306976E-03  mag=     0.0000
       N       E                     dE             d eps       ncg     rms          rms(c)
DAV:   1    -0.137917431698E+04    0.34254E-03   -0.71969E-02  5120   0.189E-01    0.766E-02
DAV:   2    -0.137917434354E+04   -0.26558E-04   -0.86610E-04  5888   0.188E-02    0.466E-02
DAV:   3    -0.137917432859E+04    0.14947E-04   -0.14326E-04  5920   0.135E-02    0.133E-02
DAV:   4    -0.137917432765E+04    0.93601E-06   -0.20745E-05  5664   0.486E-03    0.720E-03
DAV:   5    -0.137917432682E+04    0.83372E-06   -0.65174E-06  5888   0.326E-03    0.277E-03
DAV:   6    -0.137917432685E+04   -0.25088E-07   -0.98646E-07  6208   0.112E-03    0.119E-03
DAV:   7    -0.137917432708E+04   -0.23386E-06   -0.15702E-07  5632   0.514E-04    0.657E-04
DAV:   8    -0.137917432745E+04   -0.36854E-06   -0.60819E-08  4928   0.417E-04    0.326E-04
DAV:   9    -0.137917432783E+04   -0.38535E-06   -0.37833E-08  4384   0.339E-04    0.217E-04
DAV:  10    -0.137917432823E+04   -0.39433E-06   -0.22457E-08  3840   0.204E-04    0.137E-04
DAV:  11    -0.137917432863E+04   -0.40465E-06   -0.18147E-08  3808   0.194E-04    0.105E-04
DAV:  12    -0.137917432888E+04   -0.25229E-06   -0.14965E-08  3776   0.148E-04    0.670E-05
DAV:  13    -0.137917432908E+04   -0.19812E-06   -0.68607E-09  3264   0.901E-05    0.537E-05
DAV:  14    -0.137917432917E+04   -0.89538E-07   -0.30547E-09  3072   0.588E-05    0.358E-05
DAV:  15    -0.137917432925E+04   -0.80734E-07   -0.34090E-09  3072   0.693E-05    0.275E-05
DAV:  16    -0.137917432928E+04   -0.28827E-07   -0.20637E-09  3072   0.606E-05    0.310E-05
DAV:  17    -0.137917432929E+04   -0.12195E-07   -0.86222E-10  3072   0.364E-05    0.151E-05
DAV:  18    -0.137917432930E+04   -0.87020E-08   -0.72772E-10  3072   0.333E-05
  35 F= -.13986991E+04 E0= -.13986991E+04  d E =0.186352E-03  mag=     0.0000
       N       E                     dE             d eps       ncg     rms          rms(c)
DAV:   1    -0.137917410197E+04    0.22732E-03   -0.73467E-02  4416   0.179E-01    0.815E-02
DAV:   2    -0.137917411313E+04   -0.11151E-04   -0.51991E-04  4512   0.141E-02    0.490E-02
DAV:   3    -0.137917411419E+04   -0.10677E-05   -0.10727E-04  5312   0.685E-03    0.773E-03
DAV:   4    -0.137917411331E+04    0.88463E-06   -0.10473E-05  4640   0.225E-03    0.457E-03
DAV:   5    -0.137917411340E+04   -0.85740E-07   -0.43858E-06  4672   0.149E-03    0.133E-03
DAV:   6    -0.137917411366E+04   -0.26518E-06   -0.43795E-07  4672   0.559E-04    0.782E-04
DAV:   7    -0.137917411403E+04   -0.36720E-06   -0.65313E-08  4032   0.209E-04    0.307E-04
DAV:   8    -0.137917411442E+04   -0.38788E-06   -0.26018E-08  3744   0.118E-04    0.174E-04
DAV:   9    -0.137917411482E+04   -0.40894E-06   -0.13436E-08  3552   0.107E-04    0.942E-05
DAV:  10    -0.137917411519E+04   -0.36895E-06   -0.15347E-08  3648   0.109E-04    0.758E-05
DAV:  11    -0.137917411538E+04   -0.18365E-06   -0.67119E-09  3200   0.995E-05    0.551E-05
DAV:  12    -0.137917411554E+04   -0.16142E-06   -0.65894E-09  3264   0.883E-05    0.346E-05
DAV:  13    -0.137917411563E+04   -0.93583E-07   -0.35152E-09  3136   0.668E-05    0.248E-05
DAV:  14    -0.137917411569E+04   -0.54541E-07   -0.26795E-09  3072   0.571E-05    0.171E-05
DAV:  15    -0.137917411570E+04   -0.12995E-07   -0.10320E-09  3072   0.396E-05    0.128E-05
DAV:  16    -0.137917411571E+04   -0.10637E-07   -0.39431E-10  3008   0.237E-05    0.886E-06
DAV:  17    -0.137917411572E+04   -0.50495E-08   -0.91564E-11  3040   0.166E-05
  36 F= -.13986987E+04 E0= -.13986987E+04  d E =0.336478E-03  mag=     0.0000
       N       E                     dE             d eps       ncg     rms          rms(c)
DAV:   1    -0.137917335576E+04    0.75995E-03   -0.84534E-02  4544   0.188E-01    0.135E-01
DAV:   2    -0.137917318985E+04    0.16591E-03   -0.17836E-03  4672   0.292E-02    0.783E-02
DAV:   3    -0.137917313772E+04    0.52134E-04   -0.88177E-04  4928   0.189E-02    0.271E-02
DAV:   4    -0.137917312191E+04    0.15805E-04   -0.10218E-04  4800   0.649E-03    0.159E-02
DAV:   5    -0.137917312068E+04    0.12325E-05   -0.23504E-05  5664   0.336E-03    0.307E-03
DAV:   6    -0.137917312076E+04   -0.75583E-07   -0.16178E-06  4576   0.941E-04    0.123E-03
DAV:   7    -0.137917312110E+04   -0.34594E-06   -0.36842E-07  4992   0.444E-04    0.742E-04
DAV:   8    -0.137917312142E+04   -0.31233E-06   -0.40561E-08  3904   0.202E-04    0.342E-04
DAV:   9    -0.137917312181E+04   -0.39315E-06   -0.24433E-08  3968   0.127E-04    0.176E-04
DAV:  10    -0.137917312219E+04   -0.38228E-06   -0.14660E-08  3680   0.121E-04    0.128E-04
DAV:  11    -0.137917312250E+04   -0.30591E-06   -0.11452E-08  3600   0.103E-04    0.834E-05
DAV:  12    -0.137917312275E+04   -0.25396E-06   -0.11327E-08  3632   0.107E-04    0.571E-05
DAV:  13    -0.137917312290E+04   -0.14959E-06   -0.65102E-09  3264   0.901E-05    0.505E-05
DAV:  14    -0.137917312299E+04   -0.87515E-07   -0.38909E-09  3072   0.836E-05    0.267E-05
DAV:  15    -0.137917312307E+04   -0.78260E-07   -0.38927E-09  3136   0.701E-05    0.287E-05
DAV:  16    -0.137917312310E+04   -0.28507E-07   -0.11516E-09  3072   0.421E-05    0.201E-05
DAV:  17    -0.137917312312E+04   -0.28551E-07   -0.77787E-10  3072   0.356E-05    0.171E-05
DAV:  18    -0.137917312314E+04   -0.13344E-07   -0.31375E-10  3072   0.250E-05    0.184E-05
DAV:  19    -0.137917312314E+04   -0.61991E-08    0.18974E-12  2944   0.172E-05
  37 F= -.13986978E+04 E0= -.13986978E+04  d E =0.935529E-03  mag=    -0.0000
       N       E                     dE             d eps       ncg     rms          rms(c)
DAV:   1    -0.137917439187E+04   -0.12687E-02   -0.78714E-02  4928   0.190E-01    0.111E-01
DAV:   2    -0.137917433195E+04    0.59925E-04   -0.12395E-03  4928   0.246E-02    0.661E-02
DAV:   3    -0.137917431246E+04    0.19484E-04   -0.59957E-04  5024   0.155E-02    0.231E-02
DAV:   4    -0.137917430131E+04    0.11158E-04   -0.65443E-05  4800   0.512E-03    0.145E-02
DAV:   5    -0.137917429966E+04    0.16431E-05   -0.25312E-05  5024   0.323E-03    0.241E-03
DAV:   6    -0.137917429984E+04   -0.17397E-06   -0.15197E-06  4736   0.863E-04    0.122E-03
DAV:   7    -0.137917430000E+04   -0.15985E-06   -0.28462E-07  4864   0.399E-04    0.760E-04
DAV:   8    -0.137917430022E+04   -0.22272E-06   -0.65758E-08  4032   0.210E-04    0.251E-04
DAV:   9    -0.137917430041E+04   -0.19174E-06   -0.15917E-08  3616   0.105E-04    0.157E-04
DAV:  10    -0.137917430068E+04   -0.27075E-06   -0.11413E-08  3584   0.104E-04    0.919E-05
DAV:  11    -0.137917430086E+04   -0.18175E-06   -0.73933E-09  3392   0.889E-05    0.652E-05
DAV:  12    -0.137917430104E+04   -0.17208E-06   -0.81495E-09  3488   0.950E-05    0.441E-05
DAV:  13    -0.137917430113E+04   -0.95897E-07   -0.48777E-09  3072   0.933E-05    0.364E-05
DAV:  14    -0.137917430119E+04   -0.59343E-07   -0.41510E-09  3072   0.897E-05    0.244E-05
DAV:  15    -0.137917430122E+04   -0.29453E-07   -0.26371E-09  3072   0.671E-05    0.216E-05
DAV:  16    -0.137917430123E+04   -0.12456E-07   -0.10241E-09  3072   0.367E-05    0.115E-05
DAV:  17    -0.137917430124E+04   -0.98080E-08   -0.60286E-10  3072   0.296E-05
  38 F= -.13986989E+04 E0= -.13986989E+04  d E =-.113757E-02  mag=    -0.0000
       N       E                     dE             d eps       ncg     rms          rms(c)
DAV:   1    -0.137917346247E+04    0.83877E-03   -0.74671E-02  4992   0.161E-01    0.979E-02
DAV:   2    -0.137917341947E+04    0.42997E-04   -0.66301E-04  5088   0.171E-02    0.569E-02
DAV:   3    -0.137917341510E+04    0.43741E-05   -0.18758E-04  5952   0.950E-03    0.141E-02
DAV:   4    -0.137917341246E+04    0.26384E-05   -0.25192E-05  5792   0.365E-03    0.647E-03
DAV:   5    -0.137917341322E+04   -0.75839E-06   -0.36147E-06  4928   0.139E-03    0.191E-03
DAV:   6    -0.137917341358E+04   -0.36479E-06   -0.36582E-07  5280   0.506E-04    0.948E-04
DAV:   7    -0.137917341399E+04   -0.40533E-06   -0.90176E-08  4672   0.247E-04    0.370E-04
DAV:   8    -0.137917341438E+04   -0.39309E-06   -0.26951E-08  3776   0.147E-04    0.218E-04
DAV:   9    -0.137917341469E+04   -0.31420E-06   -0.11316E-08  3456   0.923E-05    0.120E-04
DAV:  10    -0.137917341506E+04   -0.37086E-06   -0.15915E-08  3776   0.104E-04    0.698E-05
DAV:  11    -0.137917341528E+04   -0.21425E-06   -0.78907E-09  3264   0.887E-05    0.497E-05
DAV:  12    -0.137917341544E+04   -0.15601E-06   -0.65744E-09  3184   0.913E-05    0.345E-05
DAV:  13    -0.137917341553E+04   -0.97396E-07   -0.47087E-09  3072   0.746E-05    0.234E-05
DAV:  14    -0.137917341558E+04   -0.47803E-07   -0.24829E-09  3072   0.504E-05    0.144E-05
DAV:  15    -0.137917341561E+04   -0.31228E-07   -0.14830E-09  3072   0.380E-05    0.119E-05
DAV:  16    -0.137917341563E+04   -0.15483E-07   -0.63603E-10  3072   0.273E-05    0.839E-06
DAV:  17    -0.137917341564E+04   -0.96043E-08   -0.27974E-10  3072   0.206E-05
  39 F= -.13986981E+04 E0= -.13986981E+04  d E =0.853566E-03  mag=    -0.0000
       N       E                     dE             d eps       ncg     rms          rms(c)
DAV:   1    -0.137917429140E+04   -0.87577E-03   -0.85475E-02  5184   0.169E-01    0.148E-01
DAV:   2    -0.137917402591E+04    0.26549E-03   -0.18817E-03  5248   0.317E-02    0.808E-02
DAV:   3    -0.137917397825E+04    0.47652E-04   -0.56935E-04  5696   0.156E-02    0.275E-02
DAV:   4    -0.137917396902E+04    0.92381E-05   -0.80727E-05  5792   0.650E-03    0.126E-02
DAV:   5    -0.137917396966E+04   -0.64293E-06   -0.90374E-06  5120   0.234E-03    0.356E-03
DAV:   6    -0.137917396970E+04   -0.37689E-07   -0.14756E-06  5024   0.940E-04    0.199E-03
DAV:   7    -0.137917396986E+04   -0.16519E-06   -0.42986E-07  5120   0.494E-04    0.685E-04
DAV:   8    -0.137917397010E+04   -0.23528E-06   -0.70365E-08  4288   0.195E-04    0.270E-04
DAV:   9    -0.137917397024E+04   -0.13760E-06   -0.10926E-08  3392   0.904E-05    0.165E-04
DAV:  10    -0.137917397043E+04   -0.19091E-06   -0.90758E-09  3456   0.723E-05    0.106E-04
DAV:  11    -0.137917397056E+04   -0.13443E-06   -0.33588E-09  3072   0.538E-05    0.552E-05
DAV:  12    -0.137917397068E+04   -0.11588E-06   -0.44629E-09  3168   0.533E-05    0.471E-05
DAV:  13    -0.137917397075E+04   -0.75437E-07   -0.21902E-09  3008   0.486E-05    0.334E-05
DAV:  14    -0.137917397081E+04   -0.62064E-07   -0.25450E-09  3072   0.475E-05    0.191E-05
DAV:  15    -0.137917397084E+04   -0.26659E-07   -0.11801E-09  3072   0.361E-05    0.121E-05
DAV:  16    -0.137917397086E+04   -0.22104E-07   -0.81374E-10  3008   0.260E-05    0.879E-06
DAV:  17    -0.137917397087E+04   -0.95606E-08   -0.24772E-10  3072   0.206E-05
  40 F= -.13986986E+04 E0= -.13986986E+04  d E =-.499988E-03  mag=     0.0000
       N       E                     dE             d eps       ncg     rms          rms(c)
DAV:   1    -0.137917400013E+04   -0.29266E-04   -0.78555E-02  4992   0.174E-01    0.126E-01
DAV:   2    -0.137917382684E+04    0.17329E-03   -0.15250E-03  5696   0.259E-02    0.694E-02
DAV:   3    -0.137917380492E+04    0.21916E-04   -0.34037E-04  5600   0.107E-02    0.260E-02
DAV:   4    -0.137917380021E+04    0.47110E-05   -0.66914E-05  5856   0.541E-03    0.990E-03
DAV:   5    -0.137917380037E+04   -0.15399E-06   -0.94014E-06  5312   0.224E-03    0.248E-03
DAV:   6    -0.137917380062E+04   -0.25633E-06   -0.11775E-06  4672   0.835E-04    0.192E-03
DAV:   7    -0.137917380088E+04   -0.25303E-06   -0.25276E-07  4992   0.403E-04    0.582E-04
DAV:   8    -0.137917380112E+04   -0.24636E-06   -0.70910E-08  4224   0.186E-04    0.188E-04
DAV:   9    -0.137917380134E+04   -0.22010E-06   -0.77362E-09  3360   0.761E-05    0.142E-04
DAV:  10    -0.137917380162E+04   -0.28106E-06   -0.10128E-08  3616   0.700E-05    0.946E-05
DAV:  11    -0.137917380186E+04   -0.23254E-06   -0.88954E-09  3424   0.753E-05    0.480E-05
DAV:  12    -0.137917380201E+04   -0.15125E-06   -0.58239E-09  3200   0.672E-05    0.476E-05
DAV:  13    -0.137917380209E+04   -0.85114E-07   -0.36560E-09  3072   0.663E-05    0.276E-05
DAV:  14    -0.137917380217E+04   -0.76892E-07   -0.35491E-09  3136   0.587E-05    0.187E-05
DAV:  15    -0.137917380220E+04   -0.33717E-07   -0.14205E-09  3072   0.378E-05    0.119E-05
DAV:  16    -0.137917380223E+04   -0.26543E-07   -0.83151E-10  3072   0.295E-05    0.101E-05
DAV:  17    -0.137917380224E+04   -0.68831E-08   -0.28866E-10  3072   0.204E-05
  41 F= -.13986985E+04 E0= -.13986985E+04  d E =0.396633E-04  mag=     0.0000
       N       E                     dE             d eps       ncg     rms          rms(c)
DAV:   1    -0.137917415001E+04   -0.34778E-03   -0.78504E-02  4992   0.165E-01    0.124E-01
DAV:   2    -0.137917397077E+04    0.17924E-03   -0.13253E-03  5536   0.241E-02    0.679E-02
DAV:   3    -0.137917394281E+04    0.27960E-04   -0.35731E-04  5696   0.119E-02    0.233E-02
DAV:   4    -0.137917393909E+04    0.37209E-05   -0.56399E-05  5760   0.537E-03    0.989E-03
DAV:   5    -0.137917393982E+04   -0.72944E-06   -0.61725E-06  5376   0.212E-03    0.297E-03
DAV:   6    -0.137917393995E+04   -0.12889E-06   -0.10703E-06  5184   0.891E-04    0.160E-03
DAV:   7    -0.137917394022E+04   -0.27491E-06   -0.36728E-07  5408   0.460E-04    0.531E-04
DAV:   8    -0.137917394053E+04   -0.30850E-06   -0.43536E-08  3744   0.166E-04    0.253E-04
DAV:   9    -0.137917394081E+04   -0.28471E-06   -0.11326E-08  3328   0.932E-05    0.143E-04
DAV:  10    -0.137917394117E+04   -0.35235E-06   -0.15534E-08  3616   0.879E-05    0.948E-05
DAV:  11    -0.137917394145E+04   -0.28557E-06   -0.99737E-09  3424   0.730E-05    0.592E-05
DAV:  12    -0.137917394161E+04   -0.15640E-06   -0.52640E-09  3232   0.635E-05    0.473E-05
DAV:  13    -0.137917394171E+04   -0.10327E-06   -0.37761E-09  3104   0.596E-05    0.328E-05
DAV:  14    -0.137917394180E+04   -0.84328E-07   -0.42742E-09  3168   0.583E-05    0.187E-05
DAV:  15    -0.137917394182E+04   -0.20256E-07   -0.13103E-09  3072   0.387E-05    0.165E-05
DAV:  16    -0.137917394183E+04   -0.15105E-07   -0.81386E-10  3008   0.309E-05    0.826E-06
DAV:  17    -0.137917394184E+04   -0.45111E-08   -0.29626E-10  3072   0.231E-05
  42 F= -.13986986E+04 E0= -.13986986E+04  d E =-.678607E-04  mag=     0.0000
       N       E                     dE             d eps       ncg     rms          rms(c)
DAV:   1    -0.137917390486E+04    0.36975E-04   -0.77385E-02  4992   0.162E-01    0.111E-01
DAV:   2    -0.137917378295E+04    0.12191E-03   -0.91013E-04  5376   0.201E-02    0.615E-02
DAV:   3    -0.137917376489E+04    0.18062E-04   -0.24762E-04  5632   0.984E-03    0.193E-02
DAV:   4    -0.137917376241E+04    0.24821E-05   -0.38055E-05  5824   0.450E-03    0.774E-03
DAV:   5    -0.137917376284E+04   -0.43299E-06   -0.47156E-06  5312   0.175E-03    0.243E-03
DAV:   6    -0.137917376304E+04   -0.20472E-06   -0.71992E-07  5248   0.717E-04    0.131E-03
DAV:   7    -0.137917376332E+04   -0.27947E-06   -0.23587E-07  5088   0.380E-04    0.457E-04
DAV:   8    -0.137917376359E+04   -0.26643E-06   -0.34047E-08  3744   0.162E-04    0.223E-04
DAV:   9    -0.137917376383E+04   -0.23926E-06   -0.11053E-08  3360   0.943E-05    0.131E-04
DAV:  10    -0.137917376407E+04   -0.23992E-06   -0.10853E-08  3520   0.840E-05    0.798E-05
DAV:  11    -0.137917376424E+04   -0.16676E-06   -0.68278E-09  3360   0.733E-05    0.500E-05
DAV:  12    -0.137917376435E+04   -0.11356E-06   -0.48328E-09  3232   0.664E-05    0.394E-05
DAV:  13    -0.137917376442E+04   -0.69122E-07   -0.28039E-09  3072   0.530E-05    0.268E-05
DAV:  14    -0.137917376448E+04   -0.62908E-07   -0.32923E-09  3072   0.507E-05    0.141E-05
DAV:  15    -0.137917376450E+04   -0.22090E-07   -0.13177E-09  3072   0.384E-05    0.135E-05
DAV:  16    -0.137917376452E+04   -0.16167E-07   -0.71040E-10  3072   0.281E-05    0.837E-06
DAV:  17    -0.137917376453E+04   -0.12937E-07   -0.47526E-10  3072   0.243E-05    0.770E-06
DAV:  18    -0.137917376454E+04   -0.34051E-08   -0.90296E-11  2944   0.142E-05
  43 F= -.13986984E+04 E0= -.13986984E+04  d E =0.236074E-03  mag=     0.0000
       N       E                     dE             d eps       ncg     rms          rms(c)
DAV:   1    -0.137917310236E+04    0.66217E-03   -0.79991E-02  5056   0.186E-01    0.121E-01
DAV:   2    -0.137917300772E+04    0.94643E-04   -0.15378E-03  5184   0.265E-02    0.715E-02
DAV:   3    -0.137917297678E+04    0.30938E-04   -0.68229E-04  5376   0.163E-02    0.262E-02
DAV:   4    -0.137917296200E+04    0.14781E-04   -0.99958E-05  5280   0.641E-03    0.137E-02
DAV:   5    -0.137917296237E+04   -0.37014E-06   -0.16167E-05  6080   0.281E-03    0.272E-03
DAV:   6    -0.137917296241E+04   -0.46857E-07   -0.10217E-06  4800   0.829E-04    0.114E-03
DAV:   7    -0.137917296259E+04   -0.17483E-06   -0.21990E-07  5248   0.414E-04    0.507E-04
DAV:   8    -0.137917296273E+04   -0.14156E-06   -0.24315E-08  3808   0.193E-04    0.250E-04
DAV:   9    -0.137917296290E+04   -0.17232E-06   -0.13113E-08  3584   0.162E-04    0.126E-04
DAV:  10    -0.137917296305E+04   -0.14727E-06   -0.95008E-09  3424   0.141E-04    0.796E-05
DAV:  11    -0.137917296315E+04   -0.10310E-06   -0.46731E-09  3072   0.928E-05    0.528E-05
[...]
DAV:   7    -0.137917175900E+04   -0.24843E-06   -0.29205E-07  4480   0.461E-04    0.640E-04
DAV:   8    -0.137917175926E+04   -0.25843E-06   -0.83401E-08  4512   0.231E-04    0.243E-04
DAV:   9    -0.137917175943E+04   -0.17023E-06   -0.14549E-08  3520   0.120E-04    0.137E-04
DAV:  10    -0.137917175960E+04   -0.17001E-06   -0.68350E-09  3360   0.887E-05    0.807E-05
DAV:  11    -0.137917175978E+04   -0.17848E-06   -0.71018E-09  3328   0.870E-05    0.551E-05
DAV:  12    -0.137917175992E+04   -0.13379E-06   -0.51664E-09  3200   0.742E-05    0.386E-05
DAV:  13    -0.137917176002E+04   -0.10191E-06   -0.46787E-09  3168   0.690E-05    0.269E-05
DAV:  14    -0.137917176008E+04   -0.58819E-07   -0.28831E-09  3072   0.604E-05    0.214E-05
DAV:  15    -0.137917176011E+04   -0.34284E-07   -0.18743E-09  3072   0.483E-05    0.135E-05
DAV:  16    -0.137917176013E+04   -0.22876E-07   -0.10675E-09  3072   0.347E-05    0.133E-05
DAV:  17    -0.137917176014E+04   -0.99681E-08   -0.45408E-10  3072   0.273E-05
  60 F= -.13986964E+04 E0= -.13986964E+04  d E =0.762534E-03  mag=    -0.0000
       N       E                     dE             d eps       ncg     rms          rms(c)
DAV:   1    -0.137917205247E+04   -0.29234E-03   -0.49012E-01  4928   0.535E-01    0.139E-01
DAV:   2    -0.137917216097E+04   -0.10850E-03   -0.38715E-03  5152   0.439E-02    0.885E-02
DAV:   3    -0.137917205022E+04    0.11076E-03   -0.53111E-04  5408   0.166E-02    0.253E-02
DAV:   4    -0.137917205726E+04   -0.70420E-05   -0.11796E-04  5728   0.560E-03    0.105E-02
DAV:   5    -0.137917205575E+04    0.15090E-05   -0.16866E-05  4960   0.284E-03    0.415E-03
DAV:   6    -0.137917205687E+04   -0.11246E-05   -0.17691E-06  4960   0.917E-04    0.183E-03
DAV:   7    -0.137917205844E+04   -0.15641E-05   -0.51121E-07  4288   0.595E-04    0.601E-04
DAV:   8    -0.137917205974E+04   -0.12991E-05   -0.11931E-07  4704   0.297E-04    0.376E-04
DAV:   9    -0.137917206102E+04   -0.12822E-05   -0.35998E-08  4096   0.140E-04    0.214E-04
DAV:  10    -0.137917206272E+04   -0.17051E-05   -0.71193E-08  4224   0.166E-04    0.149E-04
DAV:  11    -0.137917206362E+04   -0.89458E-06   -0.29940E-08  4096   0.144E-04    0.992E-05
DAV:  12    -0.137917206416E+04   -0.53781E-06   -0.14706E-08  3728   0.136E-04    0.659E-05
DAV:  13    -0.137917206450E+04   -0.34113E-06   -0.10206E-08  3584   0.122E-04    0.419E-05
DAV:  14    -0.137917206463E+04   -0.13720E-06   -0.47829E-09  3104   0.101E-04    0.282E-05
DAV:  15    -0.137917206473E+04   -0.94442E-07   -0.31884E-09  3072   0.751E-05    0.191E-05
DAV:  16    -0.137917206477E+04   -0.41677E-07   -0.18662E-09  3072   0.581E-05    0.124E-05
DAV:  17    -0.137917206479E+04   -0.15294E-07   -0.82536E-10  3072   0.377E-05    0.885E-06
DAV:  18    -0.137917206479E+04   -0.53842E-08   -0.26329E-10  3072   0.236E-05
  61 F= -.13986964E+04 E0= -.13986964E+04  d E =-.137679E-04  mag=     0.0000
       N       E                     dE             d eps       ncg     rms          rms(c)
DAV:   1    -0.137917195053E+04    0.11426E-03   -0.49606E-01  4992   0.545E-01    0.153E-01
DAV:   2    -0.137917221563E+04   -0.26510E-03   -0.58588E-03  5440   0.547E-02    0.100E-01
DAV:   3    -0.137917206501E+04    0.15062E-03   -0.69632E-04  5504   0.195E-02    0.366E-02
DAV:   4    -0.137917206972E+04   -0.47078E-05   -0.17335E-04  5824   0.763E-03    0.140E-02
DAV:   5    -0.137917206685E+04    0.28708E-05   -0.24886E-05  5664   0.348E-03    0.641E-03
DAV:   6    -0.137917206792E+04   -0.10689E-05   -0.33796E-06  5152   0.121E-03    0.243E-03
DAV:   7    -0.137917206923E+04   -0.13167E-05   -0.70450E-07  4768   0.694E-04    0.917E-04
DAV:   8    -0.137917207069E+04   -0.14571E-05   -0.19445E-07  4864   0.344E-04    0.474E-04
DAV:   9    -0.137917207195E+04   -0.12609E-05   -0.47824E-08  4192   0.187E-04    0.281E-04
DAV:  10    -0.137917207374E+04   -0.17868E-05   -0.87160E-08  4256   0.221E-04    0.176E-04
DAV:  11    -0.137917207484E+04   -0.11025E-05   -0.53343E-08  4448   0.177E-04    0.128E-04
DAV:  12    -0.137917207569E+04   -0.85399E-06   -0.32594E-08  4032   0.127E-04    0.836E-05
DAV:  13    -0.137917207621E+04   -0.51226E-06   -0.17018E-08  3840   0.973E-05    0.524E-05
DAV:  14    -0.137917207638E+04   -0.17589E-06   -0.33087E-09  3072   0.666E-05    0.368E-05
DAV:  15    -0.137917207654E+04   -0.15963E-06   -0.36873E-09  3104   0.630E-05    0.226E-05
DAV:  16    -0.137917207664E+04   -0.97105E-07   -0.21860E-09  3072   0.536E-05    0.173E-05
DAV:  17    -0.137917207668E+04   -0.39523E-07   -0.94752E-10  3072   0.354E-05    0.114E-05
DAV:  18    -0.137917207672E+04   -0.45111E-07   -0.85243E-10  3040   0.359E-05    0.102E-05
DAV:  19    -0.137917207673E+04   -0.80472E-08   -0.15701E-10  3072   0.224E-05
  62 F= -.13986967E+04 E0= -.13986967E+04  d E =-.334081E-03  mag=     0.0000
       N       E                     dE             d eps       ncg     rms          rms(c)
DAV:   1    -0.137917261932E+04   -0.54260E-03   -0.46522E-01  5056   0.515E-01    0.152E-01
DAV:   2    -0.137917269733E+04   -0.78006E-04   -0.38204E-03  5376   0.457E-02    0.901E-02
DAV:   3    -0.137917261566E+04    0.81672E-04   -0.62986E-04  5792   0.183E-02    0.264E-02
DAV:   4    -0.137917261780E+04   -0.21446E-05   -0.84326E-05  6016   0.596E-03    0.132E-02
DAV:   5    -0.137917261597E+04    0.18338E-05   -0.21127E-05  5760   0.361E-03    0.470E-03
DAV:   6    -0.137917261650E+04   -0.53052E-06   -0.24568E-06  5408   0.135E-03    0.204E-03
DAV:   7    -0.137917261724E+04   -0.74449E-06   -0.40034E-07  4736   0.727E-04    0.742E-04
DAV:   8    -0.137917261820E+04   -0.95658E-06   -0.18017E-07  5504   0.482E-04    0.472E-04
DAV:   9    -0.137917261911E+04   -0.91494E-06   -0.40093E-08  4128   0.274E-04    0.289E-04
DAV:  10    -0.137917262046E+04   -0.13460E-05   -0.83312E-08  4560   0.340E-04    0.177E-04
DAV:  11    -0.137917262109E+04   -0.63055E-06   -0.41152E-08  4320   0.202E-04    0.133E-04
DAV:  12    -0.137917262164E+04   -0.54912E-06   -0.17092E-08  3776   0.118E-04    0.800E-05
DAV:  13    -0.137917262207E+04   -0.43001E-06   -0.15067E-08  3840   0.827E-05    0.488E-05
DAV:  14    -0.137917262228E+04   -0.21279E-06   -0.39891E-09  3136   0.527E-05    0.313E-05
DAV:  15    -0.137917262243E+04   -0.14549E-06   -0.36673E-09  3104   0.518E-05    0.236E-05
DAV:  16    -0.137917262250E+04   -0.69354E-07   -0.18750E-09  3072   0.472E-05    0.158E-05
DAV:  17    -0.137917262254E+04   -0.45824E-07   -0.13677E-09  3072   0.384E-05    0.129E-05
DAV:  18    -0.137917262256E+04   -0.16662E-07   -0.57347E-10  3072   0.299E-05    0.889E-06
DAV:  19    -0.137917262257E+04   -0.74215E-08   -0.22292E-10  3072   0.223E-05
  63 F= -.13986973E+04 E0= -.13986973E+04  d E =-.576164E-03  mag=    -0.0000
       N       E                     dE             d eps       ncg     rms          rms(c)
DAV:   1    -0.137917264301E+04   -0.20452E-04   -0.49704E-01  4992   0.518E-01    0.156E-01
DAV:   2    -0.137917272335E+04   -0.80335E-04   -0.39009E-03  5472   0.445E-02    0.965E-02
DAV:   3    -0.137917261182E+04    0.11153E-03   -0.55062E-04  5632   0.173E-02    0.293E-02
DAV:   4    -0.137917261676E+04   -0.49455E-05   -0.10775E-04  5888   0.599E-03    0.122E-02
DAV:   5    -0.137917261508E+04    0.16785E-05   -0.23370E-05  5440   0.348E-03    0.495E-03
DAV:   6    -0.137917261619E+04   -0.11067E-05   -0.28986E-06  5088   0.134E-03    0.231E-03
DAV:   7    -0.137917261767E+04   -0.14766E-05   -0.58984E-07  4736   0.789E-04    0.831E-04
DAV:   8    -0.137917261927E+04   -0.15999E-05   -0.23847E-07  5440   0.437E-04    0.536E-04
DAV:   9    -0.137917262112E+04   -0.18495E-05   -0.72525E-08  4320   0.243E-04    0.312E-04
DAV:  10    -0.137917262277E+04   -0.16539E-05   -0.53959E-08  4288   0.200E-04    0.211E-04
DAV:  11    -0.137917262448E+04   -0.17127E-05   -0.72240E-08  4192   0.210E-04    0.124E-04
DAV:  12    -0.137917262538E+04   -0.89784E-06   -0.30472E-08  4064   0.125E-04    0.908E-05
DAV:  13    -0.137917262585E+04   -0.46671E-06   -0.79484E-09  3296   0.743E-05    0.589E-05
DAV:  14    -0.137917262629E+04   -0.43769E-06   -0.12643E-08  3648   0.797E-05    0.411E-05
DAV:  15    -0.137917262641E+04   -0.12906E-06   -0.24779E-09  3072   0.604E-05    0.285E-05
DAV:  16    -0.137917262656E+04   -0.14386E-06   -0.33027E-09  3008   0.552E-05    0.190E-05
DAV:  17    -0.137917262661E+04   -0.48196E-07   -0.14565E-09  3072   0.478E-05    0.158E-05
DAV:  18    -0.137917262664E+04   -0.31461E-07   -0.96810E-10  3072   0.414E-05    0.917E-06
DAV:  19    -0.137917262665E+04   -0.14916E-07   -0.51618E-10  3072   0.324E-05    0.107E-05
DAV:  20    -0.137917262666E+04   -0.29831E-08   -0.29362E-11  2880   0.150E-05
  64 F= -.13986972E+04 E0= -.13986972E+04  d E =0.967379E-04  mag=     0.0000
       N       E                     dE             d eps       ncg     rms          rms(c)
DAV:   1    -0.137917138683E+04    0.12398E-02   -0.46536E-01  5056   0.536E-01    0.141E-01
DAV:   2    -0.137917149232E+04   -0.10549E-03   -0.48119E-03  5760   0.508E-02    0.867E-02
DAV:   3    -0.137917141331E+04    0.79012E-04   -0.62209E-04  6016   0.197E-02    0.319E-02
DAV:   4    -0.137917141532E+04   -0.20079E-05   -0.11757E-04  5760   0.647E-03    0.125E-02
DAV:   5    -0.137917141712E+04   -0.18049E-05   -0.11375E-05  5920   0.258E-03    0.429E-03
DAV:   6    -0.137917141764E+04   -0.51453E-06   -0.17401E-06  5216   0.121E-03    0.217E-03
DAV:   7    -0.137917141853E+04   -0.89785E-06   -0.40451E-07  5312   0.562E-04    0.839E-04
DAV:   8    -0.137917141935E+04   -0.81690E-06   -0.11162E-07  4640   0.296E-04    0.403E-04
DAV:   9    -0.137917142008E+04   -0.72517E-06   -0.28367E-08  4000   0.185E-04    0.228E-04
DAV:  10    -0.137917142093E+04   -0.85394E-06   -0.37845E-08  4224   0.184E-04    0.135E-04
DAV:  11    -0.137917142150E+04   -0.57262E-06   -0.21749E-08  3872   0.133E-04    0.895E-05
DAV:  12    -0.137917142189E+04   -0.39153E-06   -0.11822E-08  3456   0.938E-05    0.573E-05
DAV:  13    -0.137917142214E+04   -0.24137E-06   -0.78421E-09  3296   0.798E-05    0.373E-05
DAV:  14    -0.137917142226E+04   -0.12686E-06   -0.42582E-09  3072   0.686E-05    0.244E-05
DAV:  15    -0.137917142234E+04   -0.78260E-07   -0.29290E-09  3072   0.542E-05    0.172E-05
DAV:  16    -0.137917142239E+04   -0.51645E-07   -0.20640E-09  3072   0.454E-05    0.108E-05
DAV:  17    -0.137917142241E+04   -0.15410E-07   -0.97406E-10  3072   0.351E-05    0.840E-06
DAV:  18    -0.137917142242E+04   -0.82509E-08   -0.37213E-10  3072   0.225E-05
  65 F= -.13986960E+04 E0= -.13986960E+04  d E =0.114086E-02  mag=     0.0000
       N       E                     dE             d eps       ncg     rms          rms(c)
DAV:   1    -0.137917259563E+04   -0.11732E-02   -0.49107E-01  5056   0.525E-01    0.151E-01
DAV:   2    -0.137917241489E+04    0.18074E-03   -0.41608E-03  5504   0.478E-02    0.840E-02
DAV:   3    -0.137917230584E+04    0.10905E-03   -0.69310E-04  5856   0.196E-02    0.302E-02
DAV:   4    -0.137917230770E+04   -0.18603E-05   -0.13389E-04  6048   0.705E-03    0.115E-02
DAV:   5    -0.137917230864E+04   -0.93653E-06   -0.11226E-05  5440   0.279E-03    0.450E-03
DAV:   6    -0.137917230918E+04   -0.54181E-06   -0.24201E-06  5984   0.150E-03    0.228E-03
DAV:   7    -0.137917230975E+04   -0.56815E-06   -0.36577E-07  5344   0.631E-04    0.951E-04
DAV:   8    -0.137917231039E+04   -0.64181E-06   -0.10933E-07  4896   0.394E-04    0.399E-04
DAV:   9    -0.137917231092E+04   -0.53612E-06   -0.36480E-08  4032   0.270E-04    0.254E-04
DAV:  10    -0.137917231153E+04   -0.60708E-06   -0.27313E-08  4000   0.227E-04    0.151E-04
DAV:  11    -0.137917231214E+04   -0.60412E-06   -0.37655E-08  4096   0.232E-04    0.979E-05
DAV:  12    -0.137917231243E+04   -0.29446E-06   -0.16613E-08  3648   0.133E-04    0.826E-05
DAV:  13    -0.137917231259E+04   -0.15537E-06   -0.35459E-09  3072   0.662E-05    0.564E-05
DAV:  14    -0.137917231281E+04   -0.22743E-06   -0.86764E-09  3520   0.769E-05    0.358E-05
DAV:  15    -0.137917231287E+04   -0.54395E-07   -0.18831E-09  3072   0.525E-05    0.267E-05
DAV:  16    -0.137917231295E+04   -0.78042E-07   -0.19998E-09  3072   0.434E-05    0.153E-05
DAV:  17    -0.137917231299E+04   -0.44500E-07   -0.11107E-09  3072   0.394E-05    0.151E-05
DAV:  18    -0.137917231301E+04   -0.19762E-07   -0.55610E-10  3072   0.322E-05    0.861E-06
DAV:  19    -0.137917231303E+04   -0.18015E-07   -0.45786E-10  3072   0.291E-05    0.105E-05
DAV:  20    -0.137917231303E+04   -0.20227E-08   -0.40637E-11  2944   0.165E-05
  66 F= -.13986971E+04 E0= -.13986971E+04  d E =-.101508E-02  mag=     0.0000
       N       E                     dE             d eps       ncg     rms          rms(c)
DAV:   1    -0.137917360545E+04   -0.12924E-02   -0.49463E-01  5056   0.519E-01    0.152E-01
DAV:   2    -0.137917365644E+04   -0.50993E-04   -0.47538E-03  5472   0.507E-02    0.897E-02
DAV:   3    -0.137917352310E+04    0.13334E-03   -0.75465E-04  5568   0.200E-02    0.300E-02
DAV:   4    -0.137917352654E+04   -0.34455E-05   -0.12136E-04  5888   0.655E-03    0.128E-02
DAV:   5    -0.137917352536E+04    0.11825E-05   -0.17208E-05  5728   0.328E-03    0.437E-03
DAV:   6    -0.137917352584E+04   -0.48309E-06   -0.20426E-06  5280   0.112E-03    0.200E-03
DAV:   7    -0.137917352652E+04   -0.67642E-06   -0.26953E-07  5408   0.478E-04    0.784E-04
DAV:   8    -0.137917352718E+04   -0.65553E-06   -0.79788E-08  4592   0.278E-04    0.327E-04
DAV:   9    -0.137917352773E+04   -0.55610E-06   -0.18139E-08  3616   0.130E-04    0.207E-04
DAV:  10    -0.137917352849E+04   -0.76141E-06   -0.29522E-08  4096   0.115E-04    0.123E-04
DAV:  11    -0.137917352910E+04   -0.60438E-06   -0.22086E-08  3744   0.964E-05    0.820E-05
DAV:  12    -0.137917352949E+04   -0.39404E-06   -0.12942E-08  3392   0.741E-05    0.581E-05
DAV:  13    -0.137917352974E+04   -0.24661E-06   -0.84407E-09  3360   0.659E-05    0.377E-05
DAV:  14    -0.137917352987E+04   -0.12647E-06   -0.41560E-09  3072   0.601E-05    0.233E-05
DAV:  15    -0.137917352993E+04   -0.66822E-07   -0.25649E-09  3072   0.530E-05    0.176E-05
DAV:  16    -0.137917352997E+04   -0.39654E-07   -0.15089E-09  3072   0.403E-05    0.129E-05
DAV:  17    -0.137917353000E+04   -0.27081E-07   -0.97698E-10  3072   0.339E-05    0.756E-06
DAV:  18    -0.137917353000E+04   -0.59954E-08   -0.36888E-10  3072   0.257E-05
  67 F= -.13986981E+04 E0= -.13986981E+04  d E =-.105017E-02  mag=    -0.0000
       N       E                     dE             d eps       ncg     rms          rms(c)
DAV:   1    -0.137917197096E+04    0.15590E-02   -0.48897E-01  5056   0.551E-01    0.131E-01
DAV:   2    -0.137917209077E+04   -0.11981E-03   -0.46571E-03  5728   0.469E-02    0.872E-02
DAV:   3    -0.137917195735E+04    0.13342E-03   -0.51106E-04  5536   0.185E-02    0.274E-02
DAV:   4    -0.137917196624E+04   -0.88854E-05   -0.14776E-04  6144   0.696E-03    0.931E-03
DAV:   5    -0.137917196594E+04    0.29444E-06   -0.14540E-05  5760   0.338E-03    0.413E-03
DAV:   6    -0.137917196666E+04   -0.72052E-06   -0.17222E-06  6016   0.117E-03    0.211E-03
DAV:   7    -0.137917196742E+04   -0.75794E-06   -0.33443E-07  5088   0.607E-04    0.848E-04
DAV:   8    -0.137917196814E+04   -0.71459E-06   -0.93832E-08  4992   0.357E-04    0.359E-04
DAV:   9    -0.137917196870E+04   -0.56827E-06   -0.27960E-08  3968   0.197E-04    0.236E-04
DAV:  10    -0.137917196960E+04   -0.89598E-06   -0.49035E-08  4288   0.224E-04    0.134E-04
DAV:  11    -0.137917197002E+04   -0.42516E-06   -0.20336E-08  3872   0.141E-04    0.946E-05
DAV:  12    -0.137917197038E+04   -0.35130E-06   -0.13857E-08  3584   0.107E-04    0.633E-05
DAV:  13    -0.137917197060E+04   -0.21879E-06   -0.68587E-09  3264   0.710E-05    0.465E-05
DAV:  14    -0.137917197072E+04   -0.12474E-06   -0.35759E-09  3072   0.569E-05    0.269E-05
DAV:  15    -0.137917197080E+04   -0.75757E-07   -0.27182E-09  3072   0.522E-05    0.234E-05
DAV:  16    -0.137917197084E+04   -0.45417E-07   -0.16476E-09  3072   0.419E-05    0.182E-05
DAV:  17    -0.137917197087E+04   -0.30879E-07   -0.11040E-09  3072   0.374E-05    0.117E-05
DAV:  18    -0.137917197088E+04   -0.10041E-07   -0.54448E-10  3072   0.299E-05    0.117E-05
DAV:  19    -0.137917197089E+04   -0.56316E-08   -0.16852E-10  2912   0.198E-05
  68 F= -.13986966E+04 E0= -.13986966E+04  d E =0.149604E-02  mag=    -0.0000
       N       E                     dE             d eps       ncg     rms          rms(c)
DAV:   1    -0.137917234291E+04   -0.37203E-03   -0.49421E-01  4992   0.538E-01    0.145E-01
DAV:   2    -0.137917231145E+04    0.31460E-04   -0.34925E-03  5344   0.450E-02    0.901E-02
DAV:   3    -0.137917218234E+04    0.12911E-03   -0.80101E-04  5440   0.199E-02    0.183E-02
DAV:   4    -0.137917218755E+04   -0.52071E-05   -0.10474E-04  5760   0.594E-03    0.931E-03
DAV:   5    -0.137917218749E+04    0.62020E-07   -0.90415E-06  6112   0.208E-03    0.467E-03
DAV:   6    -0.137917218784E+04   -0.35393E-06   -0.15238E-06  5024   0.107E-03    0.183E-03
DAV:   7    -0.137917218838E+04   -0.53634E-06   -0.41062E-07  5248   0.583E-04    0.614E-04
DAV:   8    -0.137917218882E+04   -0.44135E-06   -0.10081E-07  4832   0.300E-04    0.436E-04
DAV:   9    -0.137917218921E+04   -0.39474E-06   -0.21242E-08  3680   0.148E-04    0.229E-04
DAV:  10    -0.137917218977E+04   -0.55839E-06   -0.22472E-08  3872   0.134E-04    0.130E-04
DAV:  11    -0.137917219015E+04   -0.37896E-06   -0.10176E-08  3296   0.102E-04    0.901E-05
DAV:  12    -0.137917219046E+04   -0.30891E-06   -0.10031E-08  3392   0.922E-05    0.509E-05
DAV:  13    -0.137917219064E+04   -0.18001E-06   -0.58460E-09  3072   0.820E-05    0.384E-05
DAV:  14    -0.137917219076E+04   -0.12344E-06   -0.54080E-09  3040   0.703E-05    0.261E-05
DAV:  15    -0.137917219082E+04   -0.55748E-07   -0.28229E-09  3072   0.563E-05    0.174E-05
DAV:  16    -0.137917219085E+04   -0.34110E-07   -0.20942E-09  3072   0.531E-05    0.114E-05
DAV:  17    -0.137917219086E+04   -0.72032E-08   -0.10161E-09  3072   0.402E-05
  69 F= -.13986969E+04 E0= -.13986969E+04  d E =-.288462E-03  mag=     0.0000
       N       E                     dE             d eps       ncg     rms          rms(c)
DAV:   1    -0.137917234885E+04   -0.15800E-03   -0.49114E-01  4992   0.540E-01    0.151E-01
DAV:   2    -0.137917230371E+04    0.45137E-04   -0.39295E-03  5344   0.473E-02    0.887E-02
DAV:   3    -0.137917218485E+04    0.11887E-03   -0.75012E-04  5568   0.189E-02    0.292E-02
DAV:   4    -0.137917218591E+04   -0.10624E-05   -0.12676E-04  5920   0.700E-03    0.110E-02
DAV:   5    -0.137917218699E+04   -0.10839E-05   -0.12652E-05  6240   0.263E-03    0.465E-03
DAV:   6    -0.137917218766E+04   -0.66786E-06   -0.15914E-06  5248   0.114E-03    0.182E-03
DAV:   7    -0.137917218828E+04   -0.61898E-06   -0.33960E-07  5120   0.455E-04    0.659E-04
DAV:   8    -0.137917218865E+04   -0.37266E-06   -0.53433E-08  3968   0.197E-04    0.324E-04
DAV:   9    -0.137917218904E+04   -0.39054E-06   -0.18793E-08  3776   0.117E-04    0.149E-04
DAV:  10    -0.137917218938E+04   -0.33881E-06   -0.96364E-09  3520   0.810E-05    0.928E-05
DAV:  11    -0.137917218974E+04   -0.35868E-06   -0.16008E-08  3840   0.846E-05    0.598E-05
DAV:  12    -0.137917218994E+04   -0.19709E-06   -0.66472E-09  3360   0.667E-05    0.418E-05
DAV:  13    -0.137917219006E+04   -0.12798E-06   -0.60547E-09  3328   0.621E-05    0.297E-05
DAV:  14    -0.137917219014E+04   -0.71290E-07   -0.31146E-09  3072   0.566E-05    0.189E-05
DAV:  15    -0.137917219017E+04   -0.38082E-07   -0.20336E-09  3072   0.451E-05    0.123E-05
DAV:  16    -0.137917219019E+04   -0.18859E-07   -0.85955E-10  3072   0.310E-05    0.923E-06
DAV:  17    -0.137917219021E+04   -0.19136E-07   -0.47382E-10  3072   0.256E-05    0.668E-06
DAV:  18    -0.137917219022E+04   -0.71013E-08   -0.11690E-10  2944   0.191E-05
  70 F= -.13986967E+04 E0= -.13986967E+04  d E =0.237946E-03  mag=     0.0000
