       N       E                     dE             d eps       ncg     rms          rms(c)
DAV:   1    -0.138490942976E+04   -0.13849E+04   -0.13539E+00  6208   0.988E-01    0.951E-01
DAV:   2    -0.138666501847E+04   -0.17556E+01   -0.12057E+00  6144   0.960E-01    0.414E-01
DAV:   3    -0.138667486621E+04   -0.98477E-02   -0.44346E-02  6656   0.233E-01    0.277E-01
DAV:   4    -0.138667491255E+04   -0.46342E-04   -0.22718E-03  5472   0.589E-02    0.224E-01
DAV:   5    -0.138667492161E+04   -0.90576E-05   -0.21839E-04  6656   0.188E-02    0.188E-01
DAV:   6    -0.138667493212E+04   -0.10510E-04   -0.25380E-05  7168   0.732E-03    0.163E-01
DAV:   7    -0.138667493830E+04   -0.61819E-05   -0.23386E-05  6848   0.806E-03    0.131E-01
DAV:   8    -0.138667494354E+04   -0.52402E-05   -0.18796E-05  6880   0.683E-03    0.106E-01
DAV:   9    -0.138667494815E+04   -0.46129E-05   -0.58452E-06  7136   0.362E-03    0.899E-02
DAV:  10    -0.138667495321E+04   -0.50545E-05   -0.12636E-05  6560   0.595E-03    0.619E-02
DAV:  11    -0.138667495727E+04   -0.40621E-05   -0.42657E-05  6368   0.107E-02    0.174E-02
DAV:  12    -0.138667495846E+04   -0.11863E-05   -0.65082E-06  6976   0.328E-03    0.108E-02
DAV:  13    -0.138667495861E+04   -0.15288E-06   -0.62476E-07  6960   0.120E-03    0.591E-03
DAV:  14    -0.138667495858E+04    0.27561E-07   -0.36941E-07  6768   0.878E-04    0.316E-03
DAV:  15    -0.138667495852E+04    0.61598E-07   -0.77944E-08  4896   0.452E-04    0.108E-03
DAV:  16    -0.138667495851E+04    0.11991E-07   -0.12346E-08  3072   0.206E-04    0.469E-04
DAV:  17    -0.138667495850E+04    0.52823E-08   -0.10189E-08  2944   0.136E-04
   1 F= -.14062618E+04 E0= -.14062618E+04  d E =-.140626E+04  mag=     0.0000
       N       E                     dE             d eps       ncg     rms          rms(c)
DAV:   1    -0.138667420098E+04    0.75753E-03   -0.58125E-01  5120   0.883E-01    0.126E-01
DAV:   2    -0.138667449409E+04   -0.29311E-03   -0.48660E-03  5472   0.817E-02    0.897E-02
DAV:   3    -0.138667442754E+04    0.66551E-04   -0.61898E-04  5968   0.422E-02    0.313E-02
DAV:   4    -0.138667443371E+04   -0.61686E-05   -0.11565E-04  6080   0.151E-02    0.157E-02
DAV:   5    -0.138667443131E+04    0.23999E-05   -0.23450E-05  6016   0.690E-03    0.727E-03
DAV:   6    -0.138667443070E+04    0.61047E-06   -0.35985E-06  6496   0.297E-03    0.353E-03
DAV:   7    -0.138667443065E+04    0.47963E-07   -0.13975E-06  6592   0.184E-03    0.142E-03
DAV:   8    -0.138667443075E+04   -0.10118E-06   -0.27457E-07  6208   0.966E-04    0.868E-04
DAV:   9    -0.138667443090E+04   -0.14823E-06   -0.98993E-08  5376   0.564E-04    0.478E-04
DAV:  10    -0.138667443104E+04   -0.14158E-06   -0.55590E-08  4928   0.467E-04    0.322E-04
DAV:  11    -0.138667443118E+04   -0.14516E-06   -0.42770E-08  4576   0.325E-04    0.219E-04
DAV:  12    -0.138667443131E+04   -0.12686E-06   -0.10605E-08  3264   0.212E-04    0.138E-04
DAV:  13    -0.138667443142E+04   -0.10589E-06   -0.11521E-08  3328   0.144E-04    0.126E-04
DAV:  14    -0.138667443148E+04   -0.67346E-07   -0.44294E-09  3072   0.935E-05    0.721E-05
DAV:  15    -0.138667443155E+04   -0.66924E-07   -0.55846E-09  3008   0.882E-05    0.646E-05
DAV:  16    -0.138667443158E+04   -0.27765E-07   -0.15326E-09  3072   0.512E-05    0.627E-05
DAV:  17    -0.138667443162E+04   -0.36511E-07   -0.13915E-09  3072   0.520E-05    0.242E-05
DAV:  18    -0.138667443164E+04   -0.22206E-07   -0.47693E-10  3008   0.370E-05    0.203E-05
DAV:  19    -0.138667443165E+04   -0.12747E-07   -0.18782E-11  2944   0.244E-05    0.153E-05
DAV:  20    -0.138667443166E+04   -0.11132E-07    0.26584E-10  3008   0.223E-05    0.851E-06
DAV:  21    -0.138667443167E+04   -0.36671E-08    0.49565E-10  2944   0.147E-05
   2 F= -.14062613E+04 E0= -.14062613E+04  d E =0.519095E-03  mag=    -0.0000
       N       E                     dE             d eps       ncg     rms          rms(c)
DAV:   1    -0.138667421049E+04    0.22117E-03   -0.11601E+00  5120   0.124E+00    0.141E-01
DAV:   2    -0.138667495113E+04   -0.74064E-03   -0.10057E-02  5472   0.109E-01    0.926E-02
DAV:   3    -0.138667485089E+04    0.10024E-03   -0.89451E-04  6384   0.399E-02    0.453E-02
DAV:   4    -0.138667484279E+04    0.81012E-05   -0.20321E-04  5696   0.207E-02    0.173E-02
DAV:   5    -0.138667483979E+04    0.30025E-05   -0.51838E-05  5472   0.107E-02    0.936E-03
DAV:   6    -0.138667483989E+04   -0.96465E-07   -0.90482E-06  5984   0.342E-03    0.504E-03
DAV:   7    -0.138667483964E+04    0.24382E-06   -0.27157E-06  6176   0.251E-03    0.261E-03
DAV:   8    -0.138667483973E+04   -0.82713E-07   -0.62510E-07  6112   0.132E-03    0.147E-03
DAV:   9    -0.138667483984E+04   -0.11656E-06   -0.23824E-07  6176   0.778E-04    0.627E-04
DAV:  10    -0.138667484001E+04   -0.16755E-06   -0.65280E-08  4816   0.377E-04    0.369E-04
DAV:  11    -0.138667484019E+04   -0.18347E-06   -0.17027E-08  3520   0.282E-04    0.237E-04
DAV:  12    -0.138667484039E+04   -0.19383E-06   -0.32168E-08  4224   0.275E-04    0.152E-04
DAV:  13    -0.138667484051E+04   -0.12323E-06   -0.10760E-08  3360   0.157E-04    0.930E-05
DAV:  14    -0.138667484060E+04   -0.89814E-07   -0.37421E-09  3072   0.866E-05    0.655E-05
DAV:  15    -0.138667484068E+04   -0.83717E-07   -0.37506E-09  3008   0.672E-05    0.393E-05
DAV:  16    -0.138667484074E+04   -0.57553E-07   -0.29174E-09  3072   0.542E-05    0.349E-05
DAV:  17    -0.138667484076E+04   -0.22847E-07   -0.76910E-10  3008   0.377E-05    0.278E-05
DAV:  18    -0.138667484078E+04   -0.19150E-07   -0.55947E-10  3008   0.377E-05    0.192E-05
DAV:  19    -0.138667484079E+04   -0.97207E-08    0.14127E-10  2944   0.264E-05
   3 F= -.14062617E+04 E0= -.14062617E+04  d E =-.370211E-03  mag=    -0.0000
       N       E                     dE             d eps       ncg     rms          rms(c)
DAV:   1    -0.138667376126E+04    0.10795E-02   -0.11578E+00  5120   0.124E+00    0.138E-01
DAV:   2    -0.138667434657E+04   -0.58531E-03   -0.10025E-02  5632   0.117E-01    0.992E-02
DAV:   3    -0.138667421696E+04    0.12962E-03   -0.11181E-03  6176   0.507E-02    0.472E-02
DAV:   4    -0.138667421609E+04    0.86840E-06   -0.20235E-04  5952   0.211E-02    0.197E-02
DAV:   5    -0.138667421144E+04    0.46459E-05   -0.53442E-05  5536   0.126E-02    0.828E-03
DAV:   6    -0.138667421098E+04    0.46314E-06   -0.64848E-06  5696   0.399E-03    0.438E-03
DAV:   7    -0.138667421101E+04   -0.28173E-07   -0.47941E-06  5728   0.347E-03    0.305E-03
DAV:   8    -0.138667421099E+04    0.18510E-07   -0.10443E-06  6304   0.163E-03    0.159E-03
DAV:   9    -0.138667421123E+04   -0.24578E-06   -0.47497E-07  6112   0.131E-03    0.794E-04
DAV:  10    -0.138667421158E+04   -0.34201E-06   -0.18094E-07  5872   0.906E-04    0.711E-04
DAV:  11    -0.138667421193E+04   -0.35268E-06   -0.10668E-07  5408   0.688E-04    0.335E-04
DAV:  12    -0.138667421237E+04   -0.43803E-06   -0.60939E-08  4960   0.536E-04    0.245E-04
DAV:  13    -0.138667421262E+04   -0.25373E-06   -0.31324E-08  4384   0.289E-04    0.179E-04
DAV:  14    -0.138667421282E+04   -0.20249E-06   -0.56535E-09  3168   0.112E-04    0.111E-04
DAV:  15    -0.138667421305E+04   -0.22273E-06   -0.10751E-08  3392   0.988E-05    0.592E-05
DAV:  16    -0.138667421314E+04   -0.95009E-07   -0.29633E-09  3072   0.697E-05    0.370E-05
DAV:  17    -0.138667421326E+04   -0.11350E-06   -0.46613E-09  3040   0.664E-05    0.290E-05
DAV:  18    -0.138667421330E+04   -0.41400E-07   -0.19467E-09  3040   0.610E-05    0.266E-05
DAV:  19    -0.138667421333E+04   -0.28798E-07   -0.15630E-09  3008   0.552E-05    0.296E-05
DAV:  20    -0.138667421334E+04   -0.13664E-07   -0.40821E-10  2944   0.406E-05    0.246E-05
DAV:  21    -0.138667421334E+04   -0.43365E-08    0.25745E-10  2944   0.289E-05
   4 F= -.14062615E+04 E0= -.14062615E+04  d E =0.221383E-03  mag=    -0.0000
       N       E                     dE             d eps       ncg     rms          rms(c)
DAV:   1    -0.138667364770E+04    0.56564E-03   -0.11647E+00  5120   0.122E+00    0.168E-01
DAV:   2    -0.138667446037E+04   -0.81267E-03   -0.11393E-02  5504   0.116E-01    0.117E-01
DAV:   3    -0.138667429841E+04    0.16195E-03   -0.10745E-03  6304   0.471E-02    0.587E-02
DAV:   4    -0.138667428401E+04    0.14398E-04   -0.30799E-04  6016   0.263E-02    0.204E-02
DAV:   5    -0.138667427951E+04    0.45046E-05   -0.63933E-05  5856   0.117E-02    0.119E-02
DAV:   6    -0.138667427740E+04    0.21077E-05   -0.12374E-05  5760   0.476E-03    0.617E-03
DAV:   7    -0.138667427661E+04    0.79678E-06   -0.50039E-06  6624   0.369E-03    0.263E-03
DAV:   8    -0.138667427639E+04    0.21957E-06   -0.13200E-06  6272   0.231E-03    0.162E-03
DAV:   9    -0.138667427656E+04   -0.17355E-06   -0.66477E-07  6432   0.159E-03    0.103E-03
DAV:  10    -0.138667427723E+04   -0.66857E-06   -0.35518E-07  6016   0.152E-03    0.841E-04
DAV:  11    -0.138667427795E+04   -0.72652E-06   -0.35079E-07  5728   0.111E-03    0.454E-04
DAV:  12    -0.138667427856E+04   -0.60852E-06   -0.12750E-07  5024   0.463E-04    0.390E-04
DAV:  13    -0.138667427901E+04   -0.44625E-06   -0.23301E-08  4000   0.215E-04    0.217E-04
DAV:  14    -0.138667427956E+04   -0.54814E-06   -0.31908E-08  4192   0.176E-04    0.120E-04
DAV:  15    -0.138667427992E+04   -0.36074E-06   -0.10453E-08  3328   0.957E-05    0.687E-05
DAV:  16    -0.138667428020E+04   -0.28382E-06   -0.10192E-08  3296   0.773E-05    0.492E-05
DAV:  17    -0.138667428035E+04   -0.15000E-06   -0.46674E-09  3072   0.737E-05    0.332E-05
DAV:  18    -0.138667428046E+04   -0.10559E-06   -0.57643E-09  3040   0.718E-05    0.226E-05
DAV:  19    -0.138667428049E+04   -0.28216E-07   -0.18219E-09  3008   0.542E-05    0.234E-05
DAV:  20    -0.138667428051E+04   -0.21246E-07   -0.75300E-10  2944   0.380E-05    0.160E-05
DAV:  21    -0.138667428051E+04   -0.34779E-08    0.14707E-10  2944   0.303E-05
   5 F= -.14062611E+04 E0= -.14062611E+04  d E =0.385705E-03  mag=     0.0000
       N       E                     dE             d eps       ncg     rms          rms(c)
DAV:   1    -0.138667303154E+04    0.12490E-02   -0.11763E+00  5120   0.105E+00    0.111E-01
DAV:   2    -0.138667330081E+04   -0.26927E-03   -0.58808E-03  5440   0.765E-02    0.663E-02
DAV:   3    -0.138667321095E+04    0.89863E-04   -0.57887E-04  6112   0.255E-02    0.214E-02
DAV:   4    -0.138667321258E+04   -0.16280E-05   -0.87547E-05  6144   0.919E-03    0.127E-02
DAV:   5    -0.138667321192E+04    0.65402E-06   -0.61720E-06  5632   0.271E-03    0.649E-03
DAV:   6    -0.138667321173E+04    0.18938E-06   -0.13835E-06  6144   0.194E-03    0.198E-03
DAV:   7    -0.138667321192E+04   -0.18440E-06   -0.72344E-07  6912   0.100E-03    0.105E-03
DAV:   8    -0.138667321220E+04   -0.28535E-06   -0.77166E-08  5152   0.354E-04    0.642E-04
DAV:   9    -0.138667321261E+04   -0.41325E-06   -0.55884E-08  4416   0.325E-04    0.276E-04
DAV:  10    -0.138667321295E+04   -0.33040E-06   -0.42320E-08  4384   0.285E-04    0.203E-04
DAV:  11    -0.138667321321E+04   -0.26470E-06   -0.14243E-08  3584   0.150E-04    0.131E-04
DAV:  12    -0.138667321346E+04   -0.24593E-06   -0.11955E-08  3488   0.975E-05    0.710E-05
DAV:  13    -0.138667321363E+04   -0.17203E-06   -0.10300E-08  3488   0.845E-05    0.484E-05
DAV:  14    -0.138667321369E+04   -0.60973E-07   -0.19630E-09  3072   0.493E-05    0.375E-05
DAV:  15    -0.138667321375E+04   -0.61162E-07   -0.16130E-09  3008   0.414E-05    0.238E-05
DAV:  16    -0.138667321380E+04   -0.50364E-07   -0.16434E-09  3072   0.432E-05    0.200E-05
DAV:  17    -0.138667321382E+04   -0.18816E-07   -0.35277E-10  2944   0.340E-05    0.142E-05
DAV:  18    -0.138667321384E+04   -0.16138E-07   -0.20150E-10  3008   0.305E-05    0.106E-05
DAV:  19    -0.138667321384E+04   -0.48167E-08    0.35281E-10  2944   0.237E-05
   6 F= -.14062599E+04 E0= -.14062599E+04  d E =0.112816E-02  mag=     0.0000
       N       E                     dE             d eps       ncg     rms          rms(c)
DAV:   1    -0.138667302224E+04    0.19160E-03   -0.11793E+00  5120   0.107E+00    0.140E-01
DAV:   2    -0.138667340034E+04   -0.37810E-03   -0.71725E-03  5472   0.874E-02    0.881E-02
DAV:   3    -0.138667330831E+04    0.92027E-04   -0.91559E-04  6496   0.409E-02    0.295E-02
DAV:   4    -0.138667331524E+04   -0.69247E-05   -0.14275E-04  5920   0.142E-02    0.189E-02
DAV:   5    -0.138667331112E+04    0.41157E-05   -0.23205E-05  6336   0.698E-03    0.868E-03
DAV:   6    -0.138667330988E+04    0.12407E-05   -0.44045E-06  6976   0.365E-03    0.318E-03
DAV:   7    -0.138667331029E+04   -0.40988E-06   -0.15517E-06  6320   0.223E-03    0.151E-03
DAV:   8    -0.138667331100E+04   -0.71042E-06   -0.43086E-07  6368   0.127E-03    0.104E-03
DAV:   9    -0.138667331218E+04   -0.11753E-05   -0.20340E-07  5632   0.116E-03    0.552E-04
DAV:  10    -0.138667331334E+04   -0.11683E-05   -0.22846E-07  5648   0.966E-04    0.395E-04
DAV:  11    -0.138667331438E+04   -0.10394E-05   -0.16625E-07  5424   0.620E-04    0.331E-04
DAV:  12    -0.138667331502E+04   -0.63238E-06   -0.45626E-08  4608   0.292E-04    0.215E-04
DAV:  13    -0.138667331548E+04   -0.46866E-06   -0.16905E-08  3456   0.149E-04    0.130E-04
DAV:  14    -0.138667331592E+04   -0.43052E-06   -0.21793E-08  3872   0.118E-04    0.727E-05
DAV:  15    -0.138667331613E+04   -0.21933E-06   -0.64032E-09  3072   0.745E-05    0.613E-05
DAV:  16    -0.138667331632E+04   -0.18283E-06   -0.91416E-09  3360   0.889E-05    0.435E-05
DAV:  17    -0.138667331638E+04   -0.58324E-07   -0.24815E-09  3072   0.743E-05    0.434E-05
DAV:  18    -0.138667331641E+04   -0.37893E-07   -0.10350E-09  3008   0.535E-05    0.270E-05
DAV:  19    -0.138667331643E+04   -0.20547E-07   -0.58791E-10  3008   0.473E-05    0.140E-05
DAV:  20    -0.138667331645E+04   -0.11583E-07    0.19512E-10  2944   0.319E-05    0.140E-05
DAV:  21    -0.138667331645E+04   -0.81782E-08    0.44842E-10  2944   0.190E-05
   7 F= -.14062604E+04 E0= -.14062604E+04  d E =-.406355E-03  mag=    -0.0000
       N       E                     dE             d eps       ncg     rms          rms(c)
DAV:   1    -0.138667376142E+04   -0.44498E-03   -0.11629E+00  5120   0.113E+00    0.189E-01
DAV:   2    -0.138667461923E+04   -0.85780E-03   -0.12249E-02  5568   0.107E-01    0.130E-01
DAV:   3    -0.138667443486E+04    0.18437E-03   -0.12943E-03  6432   0.517E-02    0.620E-02
DAV:   4    -0.138667442835E+04    0.65079E-05   -0.30831E-04  6240   0.240E-02    0.223E-02
DAV:   5    -0.138667442343E+04    0.49180E-05   -0.44361E-05  5824   0.105E-02    0.115E-02
DAV:   6    -0.138667442138E+04    0.20523E-05   -0.10552E-05  6016   0.472E-03    0.484E-03
DAV:   7    -0.138667442116E+04    0.22459E-06   -0.35562E-06  6560   0.308E-03    0.227E-03
DAV:   8    -0.138667442165E+04   -0.49271E-06   -0.68573E-07  6464   0.167E-03    0.145E-03
DAV:   9    -0.138667442235E+04   -0.69785E-06   -0.46676E-07  6528   0.142E-03    0.909E-04
DAV:  10    -0.138667442358E+04   -0.12308E-05   -0.26365E-07  5856   0.118E-03    0.633E-04
DAV:  11    -0.138667442506E+04   -0.14823E-05   -0.21703E-07  5344   0.999E-04    0.301E-04
DAV:  12    -0.138667442612E+04   -0.10585E-05   -0.14713E-07  5216   0.534E-04    0.313E-04
DAV:  13    -0.138667442661E+04   -0.49453E-06   -0.17966E-08  3584   0.157E-04    0.207E-04
DAV:  14    -0.138667442731E+04   -0.69324E-06   -0.33365E-08  4064   0.151E-04    0.118E-04
DAV:  15    -0.138667442766E+04   -0.35232E-06   -0.10139E-08  3232   0.849E-05    0.781E-05
DAV:  16    -0.138667442794E+04   -0.28517E-06   -0.92698E-09  3248   0.686E-05    0.486E-05
DAV:  17    -0.138667442809E+04   -0.14139E-06   -0.34152E-09  3072   0.559E-05    0.283E-05
DAV:  18    -0.138667442819E+04   -0.10623E-06   -0.46639E-09  3072   0.562E-05    0.198E-05
DAV:  19    -0.138667442822E+04   -0.23065E-07   -0.98042E-10  2976   0.509E-05    0.131E-05
DAV:  20    -0.138667442823E+04   -0.17477E-07   -0.63480E-10  2976   0.409E-05    0.122E-05
DAV:  21    -0.138667442824E+04   -0.30122E-08    0.13426E-10  2944   0.284E-05
   8 F= -.14062610E+04 E0= -.14062610E+04  d E =-.684450E-03  mag=     0.0000
       N       E                     dE             d eps       ncg     rms          rms(c)
DAV:   1    -0.138667348404E+04    0.94419E-03   -0.11711E+00  5120   0.110E+00    0.289E-01
DAV:   2    -0.138667421112E+04   -0.72708E-03   -0.11894E-02  5760   0.114E-01    0.234E-01
DAV:   3    -0.138667402768E+04    0.18344E-03   -0.30360E-03  5920   0.945E-02    0.633E-02
DAV:   4    -0.138667400536E+04    0.22323E-04   -0.70923E-04  5664   0.350E-02    0.357E-02
DAV:   5    -0.138667398392E+04    0.21437E-04   -0.15056E-04  6208   0.195E-02    0.159E-02
DAV:   6    -0.138667398176E+04    0.21539E-05   -0.31838E-05  5952   0.771E-03    0.655E-03
DAV:   7    -0.138667398170E+04    0.61118E-07   -0.43013E-06  6944   0.300E-03    0.327E-03
DAV:   8    -0.138667398285E+04   -0.11452E-05   -0.10586E-06  6000   0.160E-03    0.180E-03
DAV:   9    -0.138667398425E+04   -0.13981E-05   -0.52754E-07  5920   0.130E-03    0.104E-03
DAV:  10    -0.138667398605E+04   -0.18037E-05   -0.28877E-07  5392   0.907E-04    0.637E-04
DAV:  11    -0.138667398788E+04   -0.18272E-05   -0.18820E-07  5568   0.743E-04    0.385E-04
DAV:  12    -0.138667398945E+04   -0.15705E-05   -0.13092E-07  4512   0.546E-04    0.314E-04
DAV:  13    -0.138667399038E+04   -0.92930E-06   -0.68943E-08  4480   0.266E-04    0.198E-04
DAV:  14    -0.138667399096E+04   -0.57864E-06   -0.19932E-08  3552   0.128E-04    0.110E-04
DAV:  15    -0.138667399142E+04   -0.46092E-06   -0.18961E-08  3776   0.959E-05    0.841E-05
DAV:  16    -0.138667399172E+04   -0.29831E-06   -0.85554E-09  3200   0.766E-05    0.545E-05
DAV:  17    -0.138667399192E+04   -0.20208E-06   -0.84729E-09  3200   0.742E-05    0.507E-05
DAV:  18    -0.138667399197E+04   -0.57596E-07   -0.19659E-09  3072   0.610E-05    0.341E-05
DAV:  19    -0.138667399203E+04   -0.51514E-07   -0.18161E-09  3072   0.593E-05    0.431E-05
DAV:  20    -0.138667399205E+04   -0.19878E-07   -0.19193E-10  2944   0.422E-05    0.344E-05
DAV:  21    -0.138667399206E+04   -0.11263E-07    0.10166E-10  2944   0.318E-05    0.117E-05
DAV:  22    -0.138667399207E+04   -0.84401E-08    0.41523E-10  2944   0.237E-05
   9 F= -.14062611E+04 E0= -.14062611E+04  d E =-.259331E-04  mag=     0.0000
       N       E                     dE             d eps       ncg     rms          rms(c)
DAV:   1    -0.138667350852E+04    0.48354E-03   -0.11531E+00  5120   0.109E+00    0.200E-01
DAV:   2    -0.138667451488E+04   -0.10064E-02   -0.12491E-02  5760   0.952E-02    0.146E-01
DAV:   3    -0.138667434626E+04    0.16861E-03   -0.12400E-03  6432   0.443E-02    0.749E-02
DAV:   4    -0.138667433722E+04    0.90393E-05   -0.32936E-04  5632   0.210E-02    0.280E-02
DAV:   5    -0.138667432381E+04    0.13415E-04   -0.13035E-04  5536   0.169E-02    0.117E-02
DAV:   6    -0.138667432475E+04   -0.93848E-06   -0.20218E-05  5600   0.556E-03    0.519E-03
DAV:   7    -0.138667432647E+04   -0.17192E-05   -0.41080E-06  6192   0.299E-03    0.235E-03
DAV:   8    -0.138667432808E+04   -0.16135E-05   -0.78937E-07  6112   0.122E-03    0.132E-03
DAV:   9    -0.138667433032E+04   -0.22359E-05   -0.44767E-07  5280   0.111E-03    0.101E-03
DAV:  10    -0.138667433282E+04   -0.24992E-05   -0.28093E-07  5152   0.732E-04    0.701E-04
DAV:  11    -0.138667433474E+04   -0.19203E-05   -0.35287E-07  5376   0.703E-04    0.512E-04
DAV:  12    -0.138667433596E+04   -0.12272E-05   -0.80834E-08  4736   0.366E-04    0.356E-04
DAV:  13    -0.138667433685E+04   -0.88567E-06   -0.57496E-08  4448   0.260E-04    0.182E-04
DAV:  14    -0.138667433747E+04   -0.62164E-06   -0.28578E-08  4000   0.137E-04    0.107E-04
DAV:  15    -0.138667433778E+04   -0.31175E-06   -0.95141E-09  3328   0.926E-05    0.613E-05
DAV:  16    -0.138667433806E+04   -0.27349E-06   -0.11734E-08  3360   0.860E-05    0.621E-05
DAV:  17    -0.138667433817E+04   -0.10943E-06   -0.36069E-09  3072   0.651E-05    0.422E-05
DAV:  18    -0.138667433823E+04   -0.66808E-07   -0.27160E-09  3072   0.616E-05    0.242E-05
DAV:  19    -0.138667433827E+04   -0.34546E-07   -0.95399E-10  3008   0.447E-05    0.303E-05
DAV:  20    -0.138667433828E+04   -0.18073E-07   -0.29818E-11  2944   0.300E-05    0.207E-05
DAV:  21    -0.138667433830E+04   -0.12442E-07    0.11323E-10  3008   0.296E-05    0.697E-06
DAV:  22    -0.138667433830E+04   -0.61555E-08    0.49152E-10  2880   0.207E-05
  10 F= -.14062614E+04 E0= -.14062614E+04  d E =-.358612E-03  mag=     0.0000
       N       E                     dE             d eps       ncg     rms          rms(c)
DAV:   1    -0.138667440217E+04   -0.63871E-04   -0.61602E-01  5120   0.799E-01    0.149E-01
DAV:   2    -0.138667489192E+04   -0.48975E-03   -0.72124E-03  5760   0.787E-02    0.108E-01
DAV:   3    -0.138667476615E+04    0.12577E-03   -0.85031E-04  6272   0.427E-02    0.625E-02
DAV:   4    -0.138667475743E+04    0.87219E-05   -0.28823E-04  5632   0.259E-02    0.226E-02
DAV:   5    -0.138667474507E+04    0.12354E-04   -0.13047E-04  5440   0.192E-02    0.104E-02
DAV:   6    -0.138667474478E+04    0.29602E-06   -0.20997E-05  5504   0.589E-03    0.533E-03
DAV:   7    -0.138667474471E+04    0.66546E-07   -0.35168E-06  6528   0.296E-03    0.255E-03
DAV:   8    -0.138667474509E+04   -0.38344E-06   -0.10563E-06  6112   0.184E-03    0.174E-03
DAV:   9    -0.138667474575E+04   -0.65839E-06   -0.58092E-07  6432   0.168E-03    0.847E-04
DAV:  10    -0.138667474673E+04   -0.97988E-06   -0.35744E-07  5632   0.121E-03    0.921E-04
DAV:  11    -0.138667474791E+04   -0.11814E-05   -0.33125E-07  5632   0.101E-03    0.451E-04
DAV:  12    -0.138667474885E+04   -0.93535E-06   -0.12290E-07  5344   0.593E-04    0.380E-04
DAV:  13    -0.138667474935E+04   -0.50061E-06   -0.42602E-08  4576   0.298E-04    0.221E-04
DAV:  14    -0.138667474983E+04   -0.48149E-06   -0.15067E-08  3488   0.136E-04    0.119E-04
DAV:  15    -0.138667475031E+04   -0.48291E-06   -0.20371E-08  3840   0.984E-05    0.105E-04
DAV:  16    -0.138667475052E+04   -0.20386E-06   -0.39347E-09  3072   0.719E-05    0.547E-05
DAV:  17    -0.138667475074E+04   -0.22526E-06   -0.79001E-09  3104   0.692E-05    0.413E-05
DAV:  18    -0.138667475081E+04   -0.70635E-07   -0.16161E-09  3072   0.526E-05    0.251E-05
DAV:  19    -0.138667475088E+04   -0.71101E-07   -0.27432E-09  3040   0.539E-05    0.370E-05
DAV:  20    -0.138667475090E+04   -0.14290E-07   -0.25131E-10  2944   0.414E-05    0.266E-05
DAV:  21    -0.138667475091E+04   -0.83237E-08    0.38569E-12  2912   0.375E-05
  11 F= -.14062615E+04 E0= -.14062615E+04  d E =-.127593E-03  mag=     0.0000
       N       E                     dE             d eps       ncg     rms          rms(c)
DAV:   1    -0.138667437198E+04    0.37892E-03   -0.71656E-02  5152   0.137E-01    0.735E-02
DAV:   2    -0.138667436623E+04    0.57477E-05   -0.64079E-04  5472   0.140E-02    0.446E-02
DAV:   3    -0.138667433193E+04    0.34303E-04   -0.10530E-04  5888   0.101E-02    0.659E-03
DAV:   4    -0.138667433178E+04    0.15213E-06   -0.97154E-06  5728   0.359E-03    0.390E-03
DAV:   5    -0.138667433185E+04   -0.69544E-07   -0.23478E-06  5920   0.201E-03    0.178E-03
DAV:   6    -0.138667433215E+04   -0.30361E-06   -0.34335E-07  5984   0.797E-04    0.943E-04
DAV:   7    -0.138667433275E+04   -0.60095E-06   -0.97866E-08  5152   0.341E-04    0.576E-04
DAV:   8    -0.138667433378E+04   -0.10307E-05   -0.99557E-08  4672   0.335E-04    0.269E-04
DAV:   9    -0.138667433464E+04   -0.85859E-06   -0.68794E-08  4224   0.223E-04    0.216E-04
DAV:  10    -0.138667433541E+04   -0.76850E-06   -0.45200E-08  4000   0.171E-04    0.122E-04
DAV:  11    -0.138667433593E+04   -0.52074E-06   -0.34328E-08  3872   0.157E-04    0.829E-05
DAV:  12    -0.138667433625E+04   -0.32269E-06   -0.20417E-08  3680   0.186E-04    0.539E-05
DAV:  13    -0.138667433643E+04   -0.17337E-06   -0.13085E-08  3472   0.176E-04    0.411E-05
DAV:  14    -0.138667433654E+04   -0.11710E-06   -0.60038E-09  3104   0.108E-04    0.242E-05
DAV:  15    -0.138667433663E+04   -0.85347E-07   -0.37900E-09  3072   0.728E-05    0.272E-05
DAV:  16    -0.138667433666E+04   -0.32873E-07   -0.61788E-10  3008   0.471E-05    0.191E-05
DAV:  17    -0.138667433669E+04   -0.26092E-07   -0.35106E-10  3008   0.387E-05    0.168E-05
DAV:  18    -0.138667433670E+04   -0.12631E-07    0.30138E-10  2944   0.267E-05    0.183E-05
DAV:  19    -0.138667433670E+04   -0.45256E-08    0.58721E-10  2944   0.180E-05
  12 F= -.14062613E+04 E0= -.14062613E+04  d E =0.238662E-03  mag=     0.0000
       N       E                     dE             d eps       ncg     rms          rms(c)
DAV:   1    -0.138667526983E+04   -0.93313E-03   -0.76766E-02  5184   0.141E-01    0.937E-02
DAV:   2    -0.138667519590E+04    0.73936E-04   -0.86804E-04  5440   0.177E-02    0.545E-02
DAV:   3    -0.138667514162E+04    0.54276E-04   -0.35033E-04  6272   0.141E-02    0.131E-02
DAV:   4    -0.138667513764E+04    0.39778E-05   -0.38113E-05  5504   0.501E-03    0.844E-03
DAV:   5    -0.138667513549E+04    0.21493E-05   -0.10286E-05  5808   0.285E-03    0.341E-03
DAV:   6    -0.138667513535E+04    0.14568E-06   -0.89962E-07  6496   0.129E-03    0.201E-03
DAV:   7    -0.138667513563E+04   -0.28114E-06   -0.34877E-07  5104   0.767E-04    0.936E-04
DAV:   8    -0.138667513657E+04   -0.94585E-06   -0.19474E-07  5152   0.613E-04    0.579E-04
DAV:   9    -0.138667513791E+04   -0.13330E-05   -0.11150E-07  4592   0.431E-04    0.398E-04
DAV:  10    -0.138667513944E+04   -0.15336E-05   -0.10523E-07  4496   0.363E-04    0.210E-04
DAV:  11    -0.138667514046E+04   -0.10232E-05   -0.73917E-08  4368   0.241E-04    0.208E-04
DAV:  12    -0.138667514120E+04   -0.73251E-06   -0.28014E-08  3776   0.155E-04    0.112E-04
DAV:  13    -0.138667514165E+04   -0.45134E-06   -0.20751E-08  3648   0.127E-04    0.659E-05
DAV:  14    -0.138667514192E+04   -0.26815E-06   -0.10394E-08  3184   0.122E-04    0.527E-05
DAV:  15    -0.138667514207E+04   -0.15128E-06   -0.73437E-09  3072   0.102E-04    0.375E-05
DAV:  16    -0.138667514216E+04   -0.94660E-07   -0.32157E-09  3072   0.629E-05    0.198E-05
DAV:  17    -0.138667514224E+04   -0.77343E-07   -0.22622E-09  3072   0.566E-05    0.188E-05
DAV:  18    -0.138667514226E+04   -0.17404E-07   -0.26454E-10  2944   0.378E-05    0.176E-05
DAV:  19    -0.138667514227E+04   -0.14290E-07    0.26247E-10  2944   0.241E-05    0.776E-06
DAV:  20    -0.138667514228E+04   -0.67957E-08    0.44538E-10  2944   0.179E-05
  13 F= -.14062619E+04 E0= -.14062619E+04  d E =-.590000E-03  mag=     0.0000
       N       E                     dE             d eps       ncg     rms          rms(c)
DAV:   1    -0.138667477273E+04    0.36954E-03   -0.68778E-02  5120   0.151E-01    0.849E-02
DAV:   2    -0.138667478378E+04   -0.11043E-04   -0.89194E-04  5600   0.221E-02    0.494E-02
DAV:   3    -0.138667477455E+04    0.92236E-05   -0.20319E-04  6048   0.139E-02    0.171E-02
DAV:   4    -0.138667477209E+04    0.24616E-05   -0.32733E-05  6400   0.697E-03    0.657E-03
DAV:   5    -0.138667477251E+04   -0.42269E-06   -0.36680E-06  5376   0.208E-03    0.256E-03
DAV:   6    -0.138667477284E+04   -0.32585E-06   -0.46988E-07  6144   0.890E-04    0.149E-03
DAV:   7    -0.138667477329E+04   -0.45414E-06   -0.14826E-07  5696   0.529E-04    0.657E-04
DAV:   8    -0.138667477373E+04   -0.43071E-06   -0.49770E-08  4704   0.341E-04    0.307E-04
DAV:   9    -0.138667477416E+04   -0.43042E-06   -0.32036E-08  4224   0.261E-04    0.199E-04
DAV:  10    -0.138667477451E+04   -0.35374E-06   -0.16368E-08  3648   0.184E-04    0.123E-04
DAV:  11    -0.138667477486E+04   -0.34977E-06   -0.23061E-08  4000   0.174E-04    0.102E-04
DAV:  12    -0.138667477502E+04   -0.16093E-06   -0.10038E-08  3488   0.122E-04    0.619E-05
DAV:  13    -0.138667477513E+04   -0.11399E-06   -0.49355E-09  3136   0.895E-05    0.484E-05
DAV:  14    -0.138667477519E+04   -0.52009E-07   -0.26671E-09  3072   0.627E-05    0.391E-05
DAV:  15    -0.138667477522E+04   -0.36191E-07   -0.19523E-09  3056   0.564E-05    0.202E-05
DAV:  16    -0.138667477524E+04   -0.21115E-07   -0.12888E-09  3024   0.477E-05    0.251E-05
DAV:  17    -0.138667477525E+04   -0.80036E-08   -0.30782E-10  2944   0.313E-05
  14 F= -.14062617E+04 E0= -.14062617E+04  d E =0.233167E-03  mag=    -0.0000
       N       E                     dE             d eps       ncg     rms          rms(c)
DAV:   1    -0.138667362157E+04    0.11537E-02   -0.62036E-02  5216   0.130E-01    0.823E-02
DAV:   2    -0.138667365233E+04   -0.30757E-04   -0.50213E-04  5632   0.200E-02    0.460E-02
DAV:   3    -0.138667367904E+04   -0.26709E-04   -0.70698E-05  5632   0.848E-03    0.163E-02
DAV:   4    -0.138667368211E+04   -0.30712E-05   -0.41950E-05  6528   0.755E-03    0.829E-03
DAV:   5    -0.138667368120E+04    0.91172E-06   -0.82879E-06  6464   0.329E-03    0.215E-03
DAV:   6    -0.138667368233E+04   -0.11357E-05   -0.11017E-06  5216   0.110E-03    0.123E-03
DAV:   7    -0.138667368324E+04   -0.90784E-06   -0.16618E-07  5680   0.540E-04    0.572E-04
DAV:   8    -0.138667368385E+04   -0.60778E-06   -0.66173E-08  4720   0.298E-04    0.297E-04
DAV:   9    -0.138667368461E+04   -0.76438E-06   -0.40546E-08  4096   0.177E-04    0.183E-04
DAV:  10    -0.138667368516E+04   -0.54941E-06   -0.33221E-08  4288   0.149E-04    0.128E-04
DAV:  11    -0.138667368549E+04   -0.32567E-06   -0.15366E-08  3520   0.131E-04    0.801E-05
DAV:  12    -0.138667368572E+04   -0.23354E-06   -0.11956E-08  3424   0.117E-04    0.791E-05
DAV:  13    -0.138667368585E+04   -0.12916E-06   -0.82806E-09  3232   0.117E-04    0.582E-05
DAV:  14    -0.138667368591E+04   -0.62340E-07   -0.49494E-09  3072   0.975E-05    0.239E-05
DAV:  15    -0.138667368595E+04   -0.38577E-07   -0.27515E-09  3072   0.654E-05    0.300E-05
DAV:  16    -0.138667368598E+04   -0.27227E-07   -0.90915E-10  3008   0.424E-05    0.237E-05
DAV:  17    -0.138667368599E+04   -0.14115E-07   -0.30086E-10  2944   0.360E-05    0.125E-05
DAV:  18    -0.138667368600E+04   -0.75961E-08    0.23882E-10  2944   0.220E-05
  15 F= -.14062607E+04 E0= -.14062607E+04  d E =0.967777E-03  mag=     0.0000
       N       E                     dE             d eps       ncg     rms          rms(c)
DAV:   1    -0.138667408186E+04   -0.39586E-03   -0.60863E-02  5120   0.129E-01    0.701E-02
DAV:   2    -0.138667413654E+04   -0.54686E-04   -0.35691E-04  5568   0.156E-02    0.424E-02
DAV:   3    -0.138667417091E+04   -0.34367E-04   -0.36987E-05  5888   0.723E-03    0.778E-03
DAV:   4    -0.138667417165E+04   -0.73823E-06   -0.53305E-06  6592   0.313E-03    0.276E-03
DAV:   5    -0.138667417229E+04   -0.64516E-06   -0.67481E-07  5856   0.113E-03    0.154E-03
DAV:   6    -0.138667417303E+04   -0.73496E-06   -0.20715E-07  6000   0.713E-04    0.839E-04
DAV:   7    -0.138667417392E+04   -0.89382E-06   -0.10490E-07  4960   0.507E-04    0.411E-04
DAV:   8    -0.138667417477E+04   -0.85209E-06   -0.79277E-08  4752   0.383E-04    0.265E-04
DAV:   9    -0.138667417547E+04   -0.70120E-06   -0.39781E-08  4320   0.238E-04    0.157E-04
DAV:  10    -0.138667417607E+04   -0.59319E-06   -0.30521E-08  3968   0.182E-04    0.118E-04
DAV:  11    -0.138667417639E+04   -0.31931E-06   -0.14269E-08  3456   0.121E-04    0.700E-05
DAV:  12    -0.138667417661E+04   -0.22522E-06   -0.95906E-09  3216   0.905E-05    0.547E-05
DAV:  13    -0.138667417673E+04   -0.11618E-06   -0.43415E-09  3072   0.638E-05    0.444E-05
DAV:  14    -0.138667417680E+04   -0.70504E-07   -0.29117E-09  3136   0.664E-05    0.211E-05
DAV:  15    -0.138667417683E+04   -0.32756E-07   -0.15792E-09  3008   0.597E-05    0.280E-05
DAV:  16    -0.138667417685E+04   -0.17884E-07   -0.34358E-10  2944   0.377E-05    0.200E-05
DAV:  17    -0.138667417686E+04   -0.98371E-08   -0.20289E-10  3008   0.361E-05
  16 F= -.14062609E+04 E0= -.14062609E+04  d E =-.162632E-03  mag=     0.0000
       N       E                     dE             d eps       ncg     rms          rms(c)
DAV:   1    -0.138667466235E+04   -0.48550E-03   -0.70237E-02  5248   0.198E-01    0.987E-02
DAV:   2    -0.138667464707E+04    0.15277E-04   -0.10557E-03  6016   0.300E-02    0.533E-02
DAV:   3    -0.138667465311E+04   -0.60375E-05   -0.12389E-04  5696   0.114E-02    0.225E-02
DAV:   4    -0.138667465551E+04   -0.24016E-05   -0.57666E-05  6464   0.906E-03    0.101E-02
DAV:   5    -0.138667465467E+04    0.83765E-06   -0.14304E-05  6528   0.436E-03    0.217E-03
DAV:   6    -0.138667465562E+04   -0.94711E-06   -0.12533E-06  5440   0.121E-03    0.196E-03
DAV:   7    -0.138667465641E+04   -0.79023E-06   -0.38832E-07  5984   0.755E-04    0.585E-04
DAV:   8    -0.138667465714E+04   -0.73478E-06   -0.97440E-08  4512   0.338E-04    0.389E-04
DAV:   9    -0.138667465785E+04   -0.70443E-06   -0.36028E-08  4096   0.203E-04    0.207E-04
DAV:  10    -0.138667465853E+04   -0.67981E-06   -0.45063E-08  4128   0.193E-04    0.166E-04
DAV:  11    -0.138667465904E+04   -0.50971E-06   -0.28473E-08  3840   0.133E-04    0.924E-05
DAV:  12    -0.138667465930E+04   -0.26332E-06   -0.13585E-08  3328   0.858E-05    0.580E-05
DAV:  13    -0.138667465946E+04   -0.15707E-06   -0.53800E-09  3072   0.605E-05    0.396E-05
DAV:  14    -0.138667465958E+04   -0.11800E-06   -0.56909E-09  3200   0.602E-05    0.236E-05
DAV:  15    -0.138667465961E+04   -0.31330E-07   -0.11582E-09  3008   0.496E-05    0.183E-05
DAV:  16    -0.138667465965E+04   -0.43394E-07   -0.97115E-10  3072   0.411E-05    0.151E-05
DAV:  17    -0.138667465967E+04   -0.19136E-07    0.10931E-10  2944   0.283E-05    0.130E-05
DAV:  18    -0.138667465968E+04   -0.84838E-08    0.41125E-10  2944   0.228E-05
  17 F= -.14062616E+04 E0= -.14062616E+04  d E =-.695982E-03  mag=     0.0000
       N       E                     dE             d eps       ncg     rms          rms(c)
DAV:   1    -0.138667430434E+04    0.35533E-03   -0.75141E-02  4480   0.208E-01    0.922E-02
DAV:   2    -0.138667427462E+04    0.29718E-04   -0.64063E-04  4736   0.187E-02    0.538E-02
DAV:   3    -0.138667426782E+04    0.68048E-05   -0.23401E-04  5024   0.110E-02    0.139E-02
DAV:   4    -0.138667426405E+04    0.37717E-05   -0.25715E-05  4416   0.378E-03    0.851E-03
DAV:   5    -0.138667426365E+04    0.39417E-06   -0.10567E-05  4608   0.240E-03    0.163E-03
DAV:   6    -0.138667426379E+04   -0.13231E-06   -0.71871E-07  4576   0.649E-04    0.893E-04
DAV:   7    -0.138667426399E+04   -0.20053E-06   -0.10140E-07  4528   0.256E-04    0.380E-04
DAV:   8    -0.138667426418E+04   -0.19318E-06   -0.23664E-08  3616   0.128E-04    0.191E-04
DAV:   9    -0.138667426436E+04   -0.17878E-06   -0.84457E-09  3520   0.785E-05    0.103E-04
DAV:  10    -0.138667426454E+04   -0.18490E-06   -0.62284E-09  3328   0.760E-05    0.743E-05
DAV:  11    -0.138667426468E+04   -0.14005E-06   -0.48705E-09  3296   0.718E-05    0.539E-05
DAV:  12    -0.138667426478E+04   -0.10125E-06   -0.48030E-09  3232   0.857E-05    0.321E-05
DAV:  13    -0.138667426485E+04   -0.70970E-07   -0.39648E-09  3136   0.826E-05    0.366E-05
DAV:  14    -0.138667426489E+04   -0.31650E-07   -0.15348E-09  2976   0.555E-05    0.228E-05
DAV:  15    -0.138667426491E+04   -0.26572E-07   -0.81455E-10  2880   0.419E-05    0.176E-05
DAV:  16    -0.138667426492E+04   -0.95024E-08   -0.12185E-12  2880   0.294E-05
  18 F= -.14062612E+04 E0= -.14062612E+04  d E =0.367412E-03  mag=    -0.0000
       N       E                     dE             d eps       ncg     rms          rms(c)
DAV:   1    -0.138667380712E+04    0.45779E-03   -0.73300E-02  4512   0.206E-01    0.831E-02
DAV:   2    -0.138667381106E+04   -0.39381E-05   -0.56894E-04  4608   0.167E-02    0.491E-02
DAV:   3    -0.138667380984E+04    0.12240E-05   -0.12699E-04  5408   0.830E-03    0.984E-03
DAV:   4    -0.138667380843E+04    0.14136E-05   -0.13631E-05  4768   0.273E-03    0.556E-03
DAV:   5    -0.138667380851E+04   -0.87166E-07   -0.51213E-06  4768   0.168E-03    0.138E-03
DAV:   6    -0.138667380870E+04   -0.18654E-06   -0.48702E-07  4864   0.596E-04    0.697E-04
DAV:   7    -0.138667380903E+04   -0.33295E-06   -0.58213E-08  4096   0.218E-04    0.315E-04
DAV:   8    -0.138667380944E+04   -0.41191E-06   -0.37936E-08  4000   0.144E-04    0.204E-04
DAV:   9    -0.138667380984E+04   -0.39452E-06   -0.18690E-08  3600   0.130E-04    0.106E-04
DAV:  10    -0.138667381016E+04   -0.32164E-06   -0.17915E-08  3808   0.114E-04    0.100E-04
DAV:  11    -0.138667381038E+04   -0.21745E-06   -0.11813E-08  3520   0.141E-04    0.591E-05
DAV:  12    -0.138667381053E+04   -0.14796E-06   -0.10361E-08  3424   0.143E-04    0.501E-05
DAV:  13    -0.138667381061E+04   -0.81374E-07   -0.37600E-09  3072   0.850E-05    0.333E-05
DAV:  14    -0.138667381067E+04   -0.64902E-07   -0.33108E-09  3104   0.657E-05    0.399E-05
DAV:  15    -0.138667381068E+04   -0.13286E-07   -0.59820E-10  2944   0.480E-05    0.244E-05
DAV:  16    -0.138667381070E+04   -0.14610E-07   -0.36804E-10  2944   0.354E-05    0.277E-05
DAV:  17    -0.138667381071E+04   -0.81782E-08    0.32647E-10  2944   0.249E-05
  19 F= -.14062606E+04 E0= -.14062606E+04  d E =0.574039E-03  mag=     0.0000
       N       E                     dE             d eps       ncg     rms          rms(c)
DAV:   1    -0.138667484890E+04   -0.10382E-02   -0.71798E-02  5120   0.194E-01    0.969E-02
DAV:   2    -0.138667480476E+04    0.44135E-04   -0.11467E-03  5248   0.268E-02    0.565E-02
DAV:   3    -0.138667477879E+04    0.25968E-04   -0.44555E-04  5376   0.158E-02    0.199E-02
DAV:   4    -0.138667477231E+04    0.64797E-05   -0.48437E-05  5216   0.504E-03    0.125E-02
DAV:   5    -0.138667477083E+04    0.14835E-05   -0.14855E-05  5248   0.291E-03    0.242E-03
DAV:   6    -0.138667477095E+04   -0.11582E-06   -0.10834E-06  4928   0.805E-04    0.106E-03
DAV:   7    -0.138667477107E+04   -0.12896E-06   -0.19434E-07  5008   0.356E-04    0.592E-04
DAV:   8    -0.138667477139E+04   -0.31648E-06   -0.48986E-08  3968   0.214E-04    0.279E-04
DAV:   9    -0.138667477171E+04   -0.32091E-06   -0.23861E-08  3776   0.146E-04    0.173E-04
DAV:  10    -0.138667477217E+04   -0.46210E-06   -0.26560E-08  3968   0.120E-04    0.122E-04
DAV:  11    -0.138667477245E+04   -0.27982E-06   -0.11457E-08  3344   0.847E-05    0.828E-05
DAV:  12    -0.138667477272E+04   -0.26416E-06   -0.13528E-08  3552   0.990E-05    0.500E-05
DAV:  13    -0.138667477283E+04   -0.11269E-06   -0.52645E-09  3072   0.106E-04    0.389E-05
DAV:  14    -0.138667477292E+04   -0.90324E-07   -0.39256E-09  3072   0.831E-05    0.243E-05
DAV:  15    -0.138667477297E+04   -0.51965E-07   -0.20612E-09  3072   0.573E-05    0.208E-05
DAV:  16    -0.138667477299E+04   -0.21464E-07   -0.43930E-10  2944   0.355E-05    0.115E-05
DAV:  17    -0.138667477302E+04   -0.21260E-07   -0.87066E-11  3008   0.308E-05    0.199E-05
DAV:  18    -0.138667477302E+04   -0.64902E-08    0.43989E-10  2944   0.197E-05
  20 F= -.14062616E+04 E0= -.14062616E+04  d E =-.100438E-02  mag=    -0.0000
       N       E                     dE             d eps       ncg     rms          rms(c)
DAV:   1    -0.138667467344E+04    0.99577E-04   -0.61660E-02  5120   0.131E-01    0.576E-02
DAV:   2    -0.138667467098E+04    0.24615E-05   -0.61773E-04  5824   0.170E-02    0.345E-02
DAV:   3    -0.138667465900E+04    0.11973E-04   -0.67678E-05  6560   0.791E-03    0.143E-02
DAV:   4    -0.138667465395E+04    0.50555E-05   -0.10175E-05  5728   0.333E-03    0.330E-03
DAV:   5    -0.138667465350E+04    0.45307E-06   -0.11756E-06  6464   0.125E-03    0.195E-03
DAV:   6    -0.138667465398E+04   -0.48426E-06   -0.30686E-07  5280   0.741E-04    0.101E-03
DAV:   7    -0.138667465497E+04   -0.98653E-06   -0.14693E-07  5312   0.587E-04    0.542E-04
DAV:   8    -0.138667465645E+04   -0.14799E-05   -0.13342E-07  4704   0.500E-04    0.351E-04
DAV:   9    -0.138667465804E+04   -0.15922E-05   -0.11345E-07  4544   0.360E-04    0.220E-04
DAV:  10    -0.138667465927E+04   -0.12353E-05   -0.62974E-08  4192   0.225E-04    0.145E-04
DAV:  11    -0.138667466025E+04   -0.97253E-06   -0.50407E-08  4096   0.148E-04    0.820E-05
DAV:  12    -0.138667466065E+04   -0.40531E-06   -0.10771E-08  3328   0.964E-05    0.589E-05
DAV:  13    -0.138667466099E+04   -0.33448E-06   -0.11238E-08  3456   0.917E-05    0.379E-05
DAV:  14    -0.138667466113E+04   -0.14415E-06   -0.35040E-09  3072   0.708E-05    0.280E-05
DAV:  15    -0.138667466124E+04   -0.11026E-06   -0.26569E-09  3072   0.584E-05    0.171E-05
DAV:  16    -0.138667466129E+04   -0.45256E-07   -0.12043E-09  3008   0.554E-05    0.154E-05
DAV:  17    -0.138667466130E+04   -0.19310E-07   -0.19763E-10  2944   0.340E-05    0.103E-05
DAV:  18    -0.138667466132E+04   -0.12747E-07    0.14670E-10  2944   0.243E-05    0.916E-06
DAV:  19    -0.138667466132E+04   -0.40018E-08    0.57952E-10  2944   0.149E-05
  21 F= -.14062616E+04 E0= -.14062616E+04  d E =0.210588E-04  mag=    -0.0000
       N       E                     dE             d eps       ncg     rms          rms(c)
DAV:   1    -0.138667470081E+04   -0.39493E-04   -0.63459E-02  5088   0.137E-01    0.744E-02
DAV:   2    -0.138667468584E+04    0.14970E-04   -0.13244E-03  6144   0.236E-02    0.447E-02
DAV:   3    -0.138667465481E+04    0.31028E-04   -0.11332E-04  6112   0.102E-02    0.230E-02
DAV:   4    -0.138667463335E+04    0.21460E-04   -0.31368E-05  6048   0.618E-03    0.572E-03
DAV:   5    -0.138667463288E+04    0.47006E-06   -0.52890E-06  6240   0.251E-03    0.384E-03
DAV:   6    -0.138667463602E+04   -0.31403E-05   -0.13981E-06  5440   0.139E-03    0.165E-03
DAV:   7    -0.138667463898E+04   -0.29613E-05   -0.48779E-07  5952   0.970E-04    0.107E-03
DAV:   8    -0.138667464421E+04   -0.52232E-05   -0.45647E-07  5408   0.894E-04    0.666E-04
DAV:   9    -0.138667464849E+04   -0.42851E-05   -0.35682E-07  4928   0.615E-04    0.433E-04
DAV:  10    -0.138667465252E+04   -0.40246E-05   -0.26503E-07  4576   0.427E-04    0.270E-04
DAV:  11    -0.138667465530E+04   -0.27836E-05   -0.19058E-07  4432   0.293E-04    0.171E-04
DAV:  12    -0.138667465676E+04   -0.14638E-05   -0.59636E-08  4240   0.146E-04    0.129E-04
DAV:  13    -0.138667465767E+04   -0.90456E-06   -0.30368E-08  3872   0.117E-04    0.719E-05
DAV:  14    -0.138667465815E+04   -0.48260E-06   -0.13277E-08  3360   0.933E-05    0.570E-05
DAV:  15    -0.138667465838E+04   -0.22819E-06   -0.64564E-09  3072   0.105E-04    0.327E-05
DAV:  16    -0.138667465851E+04   -0.12880E-06   -0.59488E-09  3072   0.111E-04    0.279E-05
DAV:  17    -0.138667465856E+04   -0.49695E-07   -0.21328E-09  3008   0.673E-05    0.253E-05
DAV:  18    -0.138667465859E+04   -0.32989E-07   -0.72395E-10  3008   0.438E-05    0.117E-05
DAV:  19    -0.138667465860E+04   -0.92987E-08    0.15996E-10  2944   0.306E-05
  22 F= -.14062613E+04 E0= -.14062613E+04  d E =0.282557E-03  mag=    -0.0000
       N       E                     dE             d eps       ncg     rms          rms(c)
DAV:   1    -0.138667458406E+04    0.74530E-04   -0.67611E-02  5120   0.188E-01    0.739E-02
DAV:   2    -0.138667460615E+04   -0.22093E-04   -0.63612E-04  5600   0.185E-02    0.436E-02
DAV:   3    -0.138667459839E+04    0.77610E-05   -0.94262E-05  5712   0.872E-03    0.108E-02
DAV:   4    -0.138667459813E+04    0.26010E-06   -0.11431E-05  5664   0.294E-03    0.464E-03
DAV:   5    -0.138667459789E+04    0.23984E-06   -0.32652E-06  5088   0.176E-03    0.176E-03
DAV:   6    -0.138667459801E+04   -0.11425E-06   -0.41147E-07  5184   0.677E-04    0.918E-04
DAV:   7    -0.138667459829E+04   -0.28343E-06   -0.86003E-08  4736   0.305E-04    0.488E-04
DAV:   8    -0.138667459870E+04   -0.40507E-06   -0.45509E-08  4304   0.255E-04    0.234E-04
DAV:   9    -0.138667459904E+04   -0.34507E-06   -0.23045E-08  3792   0.161E-04    0.173E-04
DAV:  10    -0.138667459950E+04   -0.46125E-06   -0.33513E-08  4016   0.177E-04    0.113E-04
DAV:  11    -0.138667459968E+04   -0.17187E-06   -0.84891E-09  3232   0.900E-05    0.888E-05
DAV:  12    -0.138667459984E+04   -0.16786E-06   -0.68902E-09  3104   0.826E-05    0.516E-05
DAV:  13    -0.138667459995E+04   -0.10995E-06   -0.43783E-09  3072   0.622E-05    0.429E-05
DAV:  14    -0.138667460002E+04   -0.67434E-07   -0.21427E-09  3072   0.506E-05    0.238E-05
DAV:  15    -0.138667460007E+04   -0.48574E-07   -0.15661E-09  3072   0.466E-05    0.196E-05
DAV:  16    -0.138667460010E+04   -0.27983E-07   -0.52498E-10  3008   0.333E-05    0.209E-05
DAV:  17    -0.138667460011E+04   -0.10798E-07    0.14802E-10  2944   0.283E-05    0.998E-06
DAV:  18    -0.138667460012E+04   -0.12878E-07    0.20237E-10  2976   0.277E-05    0.227E-05
DAV:  19    -0.138667460012E+04   -0.17462E-08    0.64347E-10  2944   0.192E-05
  23 F= -.14062614E+04 E0= -.14062614E+04  d E =-.131451E-03  mag=     0.0000
       N       E                     dE             d eps       ncg     rms          rms(c)
DAV:   1    -0.138667408897E+04    0.51115E-03   -0.74368E-02  4992   0.201E-01    0.883E-02
DAV:   2    -0.138667407976E+04    0.92091E-05   -0.63655E-04  5376   0.193E-02    0.516E-02
DAV:   3    -0.138667407034E+04    0.94282E-05   -0.18882E-04  5664   0.105E-02    0.123E-02
DAV:   4    -0.138667406782E+04    0.25162E-05   -0.22380E-05  5312   0.356E-03    0.734E-03
DAV:   5    -0.138667406741E+04    0.41365E-06   -0.80861E-06  4992   0.213E-03    0.155E-03
DAV:   6    -0.138667406743E+04   -0.21988E-07   -0.56891E-07  4464   0.617E-04    0.861E-04
DAV:   7    -0.138667406749E+04   -0.63752E-07   -0.72990E-08  4256   0.230E-04    0.333E-04
DAV:   8    -0.138667406757E+04   -0.73051E-07   -0.15549E-08  3456   0.127E-04    0.171E-04
DAV:   9    -0.138667406765E+04   -0.87719E-07   -0.60134E-09  3328   0.926E-05    0.811E-05
DAV:  10    -0.138667406775E+04   -0.92579E-07   -0.39854E-09  3072   0.801E-05    0.572E-05
DAV:  11    -0.138667406781E+04   -0.68932E-07   -0.35913E-09  3104   0.674E-05    0.449E-05
DAV:  12    -0.138667406787E+04   -0.51747E-07   -0.28914E-09  3008   0.643E-05    0.250E-05
DAV:  13    -0.138667406790E+04   -0.37093E-07   -0.23636E-09  3008   0.534E-05    0.259E-05
DAV:  14    -0.138667406792E+04   -0.12107E-07   -0.55588E-10  2944   0.345E-05    0.195E-05
DAV:  15    -0.138667406793E+04   -0.12617E-07   -0.46515E-10  3008   0.311E-05    0.133E-05
DAV:  16    -0.138667406793E+04   -0.24593E-08    0.31872E-10  2752   0.224E-05
  24 F= -.14062609E+04 E0= -.14062609E+04  d E =0.516506E-03  mag=     0.0000
       N       E                     dE             d eps       ncg     rms          rms(c)
DAV:   1    -0.138667453507E+04   -0.46715E-03   -0.85989E-02  4928   0.213E-01    0.143E-01
DAV:   2    -0.138667433424E+04    0.20084E-03   -0.17892E-03  5248   0.337E-02    0.807E-02
DAV:   3    -0.138667427476E+04    0.59480E-04   -0.93595E-04  5120   0.222E-02    0.293E-02
DAV:   4    -0.138667425924E+04    0.15511E-04   -0.99469E-05  4960   0.717E-03    0.190E-02
DAV:   5    -0.138667425696E+04    0.22835E-05   -0.26103E-05  5344   0.378E-03    0.436E-03
DAV:   6    -0.138667425674E+04    0.22372E-06   -0.34628E-06  4992   0.147E-03    0.118E-03
DAV:   7    -0.138667425677E+04   -0.34255E-07   -0.38256E-07  4976   0.459E-04    0.104E-03
DAV:   8    -0.138667425683E+04   -0.61511E-07   -0.48529E-08  4288   0.233E-04    0.447E-04
DAV:   9    -0.138667425690E+04   -0.62297E-07   -0.28601E-08  3968   0.191E-04    0.167E-04
DAV:  10    -0.138667425697E+04   -0.74011E-07   -0.68706E-09  3200   0.978E-05    0.145E-04
DAV:  11    -0.138667425706E+04   -0.89058E-07   -0.45066E-09  3104   0.803E-05    0.696E-05
DAV:  12    -0.138667425714E+04   -0.81083E-07   -0.65580E-09  3296   0.856E-05    0.751E-05
DAV:  13    -0.138667425718E+04   -0.42157E-07   -0.27780E-09  3008   0.671E-05    0.447E-05
DAV:  14    -0.138667425721E+04   -0.29642E-07   -0.23986E-09  3008   0.587E-05    0.336E-05
DAV:  15    -0.138667425723E+04   -0.15090E-07   -0.75706E-10  2944   0.420E-05    0.301E-05
DAV:  16    -0.138667425724E+04   -0.15163E-07   -0.62798E-10  3008   0.376E-05    0.244E-05
DAV:  17    -0.138667425725E+04   -0.81345E-08    0.10941E-10  2880   0.276E-05
  25 F= -.14062609E+04 E0= -.14062609E+04  d E =0.309216E-04  mag=     0.0000
       N       E                     dE             d eps       ncg     rms          rms(c)
DAV:   1    -0.138667405673E+04    0.20051E-03   -0.78690E-02  4992   0.217E-01    0.114E-01
DAV:   2    -0.138667398139E+04    0.75341E-04   -0.13487E-03  5280   0.285E-02    0.686E-02
DAV:   3    -0.138667394917E+04    0.32216E-04   -0.74052E-04  5376   0.197E-02    0.259E-02
DAV:   4    -0.138667393631E+04    0.12862E-04   -0.98086E-05  5440   0.718E-03    0.160E-02
DAV:   5    -0.138667393483E+04    0.14769E-05   -0.27990E-05  5856   0.401E-03    0.344E-03
DAV:   6    -0.138667393490E+04   -0.67521E-07   -0.20356E-06  5280   0.125E-03    0.145E-03
DAV:   7    -0.138667393515E+04   -0.25300E-06   -0.46167E-07  5440   0.535E-04    0.825E-04
DAV:   8    -0.138667393533E+04   -0.18023E-06   -0.51726E-08  4096   0.258E-04    0.457E-04
DAV:   9    -0.138667393558E+04   -0.25152E-06   -0.22646E-08  3872   0.168E-04    0.184E-04
DAV:  10    -0.138667393579E+04   -0.20981E-06   -0.13925E-08  3616   0.144E-04    0.133E-04
DAV:  11    -0.138667393598E+04   -0.18250E-06   -0.50752E-09  3072   0.862E-05    0.938E-05
DAV:  12    -0.138667393616E+04   -0.18626E-06   -0.92065E-09  3360   0.928E-05    0.521E-05
DAV:  13    -0.138667393629E+04   -0.12691E-06   -0.59286E-09  3136   0.889E-05    0.495E-05
DAV:  14    -0.138667393636E+04   -0.66866E-07   -0.41646E-09  3072   0.884E-05    0.277E-05
DAV:  15    -0.138667393640E+04   -0.46100E-07   -0.30515E-09  3072   0.752E-05    0.237E-05
DAV:  16    -0.138667393643E+04   -0.25320E-07   -0.11117E-09  3008   0.476E-05    0.185E-05
DAV:  17    -0.138667393645E+04   -0.19005E-07   -0.20163E-10  2944   0.335E-05    0.167E-05
DAV:  18    -0.138667393645E+04   -0.71159E-08    0.29282E-10  2944   0.225E-05
  26 F= -.14062608E+04 E0= -.14062608E+04  d E =0.801176E-04  mag=     0.0000
       N       E                     dE             d eps       ncg     rms          rms(c)
DAV:   1    -0.138667444018E+04   -0.50374E-03   -0.84919E-02  4992   0.200E-01    0.142E-01
DAV:   2    -0.138667419243E+04    0.24775E-03   -0.19590E-03  5184   0.334E-02    0.790E-02
DAV:   3    -0.138667416186E+04    0.30572E-04   -0.96944E-04  5504   0.192E-02    0.307E-02
DAV:   4    -0.138667413818E+04    0.23680E-04   -0.17186E-04  5600   0.949E-03    0.154E-02
DAV:   5    -0.138667413988E+04   -0.16979E-05   -0.21215E-05  5504   0.385E-03    0.331E-03
DAV:   6    -0.138667413992E+04   -0.39785E-07   -0.14436E-06  5696   0.134E-03    0.148E-03
DAV:   7    -0.138667414004E+04   -0.12299E-06   -0.26036E-07  5664   0.515E-04    0.687E-04
DAV:   8    -0.138667414017E+04   -0.12692E-06   -0.90454E-08  5088   0.344E-04    0.294E-04
DAV:   9    -0.138667414033E+04   -0.16032E-06   -0.16046E-08  3456   0.137E-04    0.206E-04
DAV:  10    -0.138667414053E+04   -0.20329E-06   -0.13447E-08  3616   0.121E-04    0.128E-04
DAV:  11    -0.138667414067E+04   -0.14040E-06   -0.62446E-09  3200   0.847E-05    0.758E-05
DAV:  12    -0.138667414081E+04   -0.13647E-06   -0.65465E-09  3168   0.796E-05    0.574E-05
DAV:  13    -0.138667414091E+04   -0.95868E-07   -0.54491E-09  3008   0.831E-05    0.439E-05
DAV:  14    -0.138667414096E+04   -0.52329E-07   -0.36583E-09  3072   0.775E-05    0.259E-05
DAV:  15    -0.138667414099E+04   -0.28231E-07   -0.20331E-09  3008   0.599E-05    0.168E-05
DAV:  16    -0.138667414100E+04   -0.11758E-07   -0.22200E-10  2880   0.327E-05    0.157E-05
DAV:  17    -0.138667414101E+04   -0.82218E-08    0.16406E-10  2880   0.263E-05
  27 F= -.14062609E+04 E0= -.14062609E+04  d E =-.972148E-04  mag=    -0.0000
       N       E                     dE             d eps       ncg     rms          rms(c)
DAV:   1    -0.138667490393E+04   -0.76293E-03   -0.73452E-02  4992   0.190E-01    0.924E-02
DAV:   2    -0.138667489937E+04    0.45549E-05   -0.83070E-04  5408   0.196E-02    0.535E-02
DAV:   3    -0.138667489637E+04    0.29995E-05   -0.18394E-04  5728   0.943E-03    0.147E-02
DAV:   4    -0.138667489309E+04    0.32792E-05   -0.26578E-05  5600   0.381E-03    0.647E-03
DAV:   5    -0.138667489356E+04   -0.46822E-06   -0.40967E-06  5952   0.158E-03    0.185E-03
DAV:   6    -0.138667489371E+04   -0.14629E-06   -0.37942E-07  5472   0.676E-04    0.986E-04
DAV:   7    -0.138667489388E+04   -0.17304E-06   -0.90150E-08  4928   0.310E-04    0.333E-04
DAV:   8    -0.138667489403E+04   -0.15432E-06   -0.37873E-08  4096   0.186E-04    0.223E-04
DAV:   9    -0.138667489418E+04   -0.14411E-06   -0.55675E-09  3104   0.101E-04    0.129E-04
DAV:  10    -0.138667489435E+04   -0.16893E-06   -0.10094E-08  3296   0.113E-04    0.611E-05
DAV:  11    -0.138667489444E+04   -0.90833E-07   -0.48521E-09  3072   0.974E-05    0.531E-05
DAV:  12    -0.138667489454E+04   -0.97934E-07   -0.61833E-09  3136   0.966E-05    0.385E-05
DAV:  13    -0.138667489458E+04   -0.40032E-07   -0.31042E-09  3008   0.802E-05    0.262E-05
DAV:  14    -0.138667489461E+04   -0.31912E-07   -0.20636E-09  3008   0.612E-05    0.149E-05
DAV:  15    -0.138667489463E+04   -0.19572E-07   -0.10657E-09  3072   0.442E-05    0.172E-05
DAV:  16    -0.138667489463E+04   -0.54424E-08    0.11805E-10  2944   0.258E-05
  28 F= -.14062617E+04 E0= -.14062617E+04  d E =-.784299E-03  mag=     0.0000
       N       E                     dE             d eps       ncg     rms          rms(c)
DAV:   1    -0.138667470071E+04    0.19392E-03   -0.71988E-02  4992   0.208E-01    0.781E-02
DAV:   2    -0.138667472464E+04   -0.23925E-04   -0.46050E-04  5376   0.149E-02    0.473E-02
DAV:   3    -0.138667472746E+04   -0.28239E-05   -0.48204E-05  5312   0.568E-03    0.499E-03
DAV:   4    -0.138667472788E+04   -0.41585E-06   -0.55670E-06  5760   0.188E-03    0.241E-03
DAV:   5    -0.138667472789E+04   -0.17404E-07   -0.49651E-07  5056   0.637E-04    0.122E-03
DAV:   6    -0.138667472806E+04   -0.17013E-06   -0.13558E-07  4800   0.325E-04    0.445E-04
DAV:   7    -0.138667472822E+04   -0.15851E-06   -0.38160E-08  4352   0.215E-04    0.218E-04
DAV:   8    -0.138667472836E+04   -0.14099E-06   -0.64745E-09  3328   0.951E-05    0.128E-04
DAV:   9    -0.138667472855E+04   -0.18859E-06   -0.97567E-09  3552   0.100E-04    0.797E-05
DAV:  10    -0.138667472866E+04   -0.11144E-06   -0.36829E-09  3072   0.759E-05    0.459E-05
DAV:  11    -0.138667472876E+04   -0.97119E-07   -0.37429E-09  3008   0.739E-05    0.357E-05
DAV:  12    -0.138667472883E+04   -0.64363E-07   -0.25578E-09  3072   0.708E-05    0.292E-05
DAV:  13    -0.138667472887E+04   -0.47425E-07   -0.15144E-09  3008   0.535E-05    0.166E-05
DAV:  14    -0.138667472891E+04   -0.36205E-07   -0.66579E-10  3008   0.385E-05    0.125E-05
DAV:  15    -0.138667472893E+04   -0.21071E-07   -0.83653E-11  3008   0.274E-05    0.138E-05
DAV:  16    -0.138667472894E+04   -0.52387E-08    0.44206E-10  2816   0.184E-05
  29 F= -.14062616E+04 E0= -.14062616E+04  d E =0.142244E-03  mag=    -0.0000
       N       E                     dE             d eps       ncg     rms          rms(c)
DAV:   1    -0.138667445746E+04    0.27147E-03   -0.72789E-02  4992   0.201E-01    0.832E-02
DAV:   2    -0.138667445354E+04    0.39237E-05   -0.59095E-04  5120   0.174E-02    0.496E-02
DAV:   3    -0.138667445367E+04   -0.13346E-06   -0.18293E-04  5568   0.937E-03    0.136E-02
DAV:   4    -0.138667444995E+04    0.37199E-05   -0.24626E-05  5440   0.378E-03    0.731E-03
DAV:   5    -0.138667445014E+04   -0.19174E-06   -0.88963E-06  5632   0.216E-03    0.167E-03
DAV:   6    -0.138667445053E+04   -0.38916E-06   -0.68322E-07  5312   0.750E-04    0.860E-04
DAV:   7    -0.138667445116E+04   -0.63014E-06   -0.10597E-07  4352   0.275E-04    0.376E-04
DAV:   8    -0.138667445180E+04   -0.63554E-06   -0.54421E-08  4224   0.197E-04    0.263E-04
DAV:   9    -0.138667445236E+04   -0.56703E-06   -0.18493E-08  3680   0.103E-04    0.169E-04
DAV:  10    -0.138667445303E+04   -0.66793E-06   -0.32079E-08  3808   0.100E-04    0.947E-05
DAV:  11    -0.138667445358E+04   -0.54672E-06   -0.31811E-08  3744   0.104E-04    0.107E-04
DAV:  12    -0.138667445384E+04   -0.26380E-06   -0.10653E-08  3424   0.102E-04    0.513E-05
DAV:  13    -0.138667445398E+04   -0.13942E-06   -0.53202E-09  3136   0.817E-05    0.408E-05
DAV:  14    -0.138667445407E+04   -0.90178E-07   -0.24927E-09  3040   0.602E-05    0.350E-05
DAV:  15    -0.138667445413E+04   -0.53216E-07   -0.11949E-09  3040   0.492E-05    0.191E-05
DAV:  16    -0.138667445415E+04   -0.21100E-07   -0.12128E-10  2912   0.353E-05    0.102E-05
DAV:  17    -0.138667445416E+04   -0.12937E-07    0.44935E-10  2880   0.209E-05    0.655E-06
DAV:  18    -0.138667445417E+04   -0.74069E-08    0.57725E-10  2880   0.150E-05
  30 F= -.14062614E+04 E0= -.14062614E+04  d E =0.203382E-03  mag=    -0.0000
       N       E                     dE             d eps       ncg     rms          rms(c)
DAV:   1    -0.138667367073E+04    0.78343E-03   -0.72198E-02  4992   0.201E-01    0.832E-02
DAV:   2    -0.138667368602E+04   -0.15287E-04   -0.73527E-04  5408   0.181E-02    0.492E-02
DAV:   3    -0.138667368724E+04   -0.12187E-05   -0.13283E-04  5888   0.100E-02    0.125E-02
DAV:   4    -0.138667368517E+04    0.20732E-05   -0.20438E-05  5632   0.391E-03    0.544E-03
DAV:   5    -0.138667368547E+04   -0.30562E-06   -0.36608E-06  6080   0.194E-03    0.178E-03
DAV:   6    -0.138667368574E+04   -0.26502E-06   -0.36761E-07  5824   0.699E-04    0.881E-04
DAV:   7    -0.138667368614E+04   -0.40450E-06   -0.63165E-08  4528   0.364E-04    0.465E-04
DAV:   8    -0.138667368668E+04   -0.53523E-06   -0.52519E-08  4352   0.303E-04    0.246E-04
DAV:   9    -0.138667368716E+04   -0.48657E-06   -0.25350E-08  3712   0.173E-04    0.175E-04
DAV:  10    -0.138667368761E+04   -0.44970E-06   -0.16755E-08  3456   0.128E-04    0.106E-04
DAV:  11    -0.138667368808E+04   -0.46215E-06   -0.24818E-08  3744   0.129E-04    0.738E-05
DAV:  12    -0.138667368834E+04   -0.26340E-06   -0.12143E-08  3360   0.101E-04    0.475E-05
DAV:  13    -0.138667368846E+04   -0.11767E-06   -0.44657E-09  3072   0.844E-05    0.295E-05
DAV:  14    -0.138667368856E+04   -0.10623E-06   -0.43303E-09  3072   0.722E-05    0.215E-05
DAV:  15    -0.138667368860E+04   -0.36947E-07   -0.12504E-09  3072   0.486E-05    0.171E-05
DAV:  16    -0.138667368863E+04   -0.29919E-07   -0.32752E-10  3008   0.323E-05    0.894E-06
DAV:  17    -0.138667368865E+04   -0.18757E-07   -0.20011E-11  3008   0.290E-05    0.946E-06
DAV:  18    -0.138667368865E+04   -0.32305E-08    0.46580E-10  2944   0.176E-05
  31 F= -.14062605E+04 E0= -.14062605E+04  d E =0.849613E-03  mag=     0.0000
       N       E                     dE             d eps       ncg     rms          rms(c)
DAV:   1    -0.138667459716E+04   -0.90851E-03   -0.78590E-02  4992   0.216E-01    0.111E-01
DAV:   2    -0.138667453330E+04    0.63865E-04   -0.13328E-03  5312   0.288E-02    0.652E-02
DAV:   3    -0.138667452024E+04    0.13052E-04   -0.65504E-04  5376   0.174E-02    0.253E-02
DAV:   4    -0.138667450537E+04    0.14880E-04   -0.81846E-05  5472   0.663E-03    0.149E-02
DAV:   5    -0.138667450400E+04    0.13684E-05   -0.31542E-05  5888   0.419E-03    0.286E-03
DAV:   6    -0.138667450412E+04   -0.12478E-06   -0.18450E-06  5568   0.131E-03    0.147E-03
DAV:   7    -0.138667450416E+04   -0.38344E-07   -0.38736E-07  5568   0.650E-04    0.702E-04
DAV:   8    -0.138667450424E+04   -0.84081E-07   -0.59672E-08  4608   0.293E-04    0.449E-04
DAV:   9    -0.138667450438E+04   -0.13817E-06   -0.15100E-08  3488   0.153E-04    0.208E-04
DAV:  10    -0.138667450455E+04   -0.16890E-06   -0.18930E-08  3776   0.157E-04    0.156E-04
DAV:  11    -0.138667450470E+04   -0.14700E-06   -0.79459E-09  3296   0.111E-04    0.914E-05
DAV:  12    -0.138667450483E+04   -0.12998E-06   -0.84223E-09  3456   0.935E-05    0.677E-05
DAV:  13    -0.138667450492E+04   -0.88388E-07   -0.49179E-09  3104   0.764E-05    0.559E-05
DAV:  14    -0.138667450496E+04   -0.43525E-07   -0.29996E-09  3072   0.641E-05    0.286E-05
DAV:  15    -0.138667450498E+04   -0.23574E-07   -0.17225E-09  3072   0.527E-05    0.196E-05
DAV:  16    -0.138667450499E+04   -0.95024E-08   -0.43701E-10  2944   0.366E-05
  32 F= -.14062614E+04 E0= -.14062614E+04  d E =-.885689E-03  mag=     0.0000
       N       E                     dE             d eps       ncg     rms          rms(c)
DAV:   1    -0.138667427659E+04    0.22840E-03   -0.73649E-02  4352   0.192E-01    0.822E-02
DAV:   2    -0.138667428502E+04   -0.84384E-05   -0.51127E-04  4672   0.153E-02    0.490E-02
DAV:   3    -0.138667428435E+04    0.67714E-06   -0.10552E-04  5232   0.744E-03    0.795E-03
DAV:   4    -0.138667428334E+04    0.10124E-05   -0.10820E-05  4544   0.248E-03    0.473E-03
DAV:   5    -0.138667428326E+04    0.77926E-07   -0.44542E-06  4608   0.157E-03    0.131E-03
DAV:   6    -0.138667428341E+04   -0.15074E-06   -0.47249E-07  4544   0.553E-04    0.756E-04
DAV:   7    -0.138667428357E+04   -0.16674E-06   -0.62780E-08  4000   0.216E-04    0.287E-04
DAV:   8    -0.138667428376E+04   -0.18679E-06   -0.19760E-08  3712   0.124E-04    0.159E-04
DAV:   9    -0.138667428397E+04   -0.20683E-06   -0.11233E-08  3520   0.138E-04    0.784E-05
DAV:  10    -0.138667428414E+04   -0.17292E-06   -0.13526E-08  3568   0.167E-04    0.698E-05
DAV:  11    -0.138667428424E+04   -0.96130E-07   -0.10542E-08  3344   0.177E-04    0.513E-05
DAV:  12    -0.138667428435E+04   -0.11250E-06   -0.81942E-09  3344   0.124E-04    0.294E-05
DAV:  13    -0.138667428440E+04   -0.45271E-07   -0.17877E-09  3008   0.561E-05    0.240E-05
DAV:  14    -0.138667428444E+04   -0.44558E-07   -0.18769E-09  2976   0.478E-05    0.172E-05
DAV:  15    -0.138667428445E+04   -0.81054E-08   -0.16933E-10  2944   0.335E-05
  33 F= -.14062611E+04 E0= -.14062611E+04  d E =0.295640E-03  mag=    -0.0000
       N       E                     dE             d eps       ncg     rms          rms(c)
DAV:   1    -0.138667444971E+04   -0.16527E-03   -0.85425E-02  4352   0.201E-01    0.140E-01
DAV:   2    -0.138667426417E+04    0.18554E-03   -0.18696E-03  5152   0.330E-02    0.787E-02
DAV:   3    -0.138667420543E+04    0.58737E-04   -0.82573E-04  4928   0.203E-02    0.273E-02
DAV:   4    -0.138667419275E+04    0.12685E-04   -0.87242E-05  5152   0.661E-03    0.170E-02
DAV:   5    -0.138667419119E+04    0.15604E-05   -0.21111E-05  5632   0.348E-03    0.344E-03
DAV:   6    -0.138667419108E+04    0.10879E-06   -0.19381E-06  4704   0.109E-03    0.117E-03
DAV:   7    -0.138667419127E+04   -0.19552E-06   -0.35567E-07  5184   0.462E-04    0.781E-04
DAV:   8    -0.138667419148E+04   -0.20325E-06   -0.32556E-08  3904   0.200E-04    0.381E-04
DAV:   9    -0.138667419175E+04   -0.27129E-06   -0.25254E-08  3904   0.141E-04    0.177E-04
DAV:  10    -0.138667419198E+04   -0.22925E-06   -0.87581E-09  3424   0.108E-04    0.128E-04
DAV:  11    -0.138667419223E+04   -0.25477E-06   -0.11900E-08  3616   0.113E-04    0.757E-05
DAV:  12    -0.138667419243E+04   -0.19725E-06   -0.11670E-08  3584   0.135E-04    0.525E-05
DAV:  13    -0.138667419254E+04   -0.11377E-06   -0.79752E-09  3264   0.139E-04    0.472E-05
DAV:  14    -0.138667419261E+04   -0.67463E-07   -0.42992E-09  3040   0.102E-04    0.251E-05
DAV:  15    -0.138667419267E+04   -0.61307E-07   -0.29343E-09  3024   0.629E-05    0.194E-05
DAV:  16    -0.138667419270E+04   -0.24665E-07   -0.61101E-10  2944   0.385E-05    0.154E-05
DAV:  17    -0.138667419272E+04   -0.21595E-07   -0.79083E-11  2928   0.281E-05    0.990E-06
DAV:  18    -0.138667419273E+04   -0.12762E-07    0.32891E-10  2912   0.213E-05    0.133E-05
DAV:  19    -0.138667419273E+04   -0.31723E-08    0.57323E-10  2752   0.146E-05
  34 F= -.14062610E+04 E0= -.14062610E+04  d E =0.102997E-03  mag=    -0.0000
       N       E                     dE             d eps       ncg     rms          rms(c)
DAV:   1    -0.138667463195E+04   -0.43922E-03   -0.76533E-02  5056   0.208E-01    0.991E-02
DAV:   2    -0.138667462441E+04    0.75462E-05   -0.11017E-03  5152   0.241E-02    0.598E-02
DAV:   3    -0.138667460392E+04    0.20491E-04   -0.42210E-04  5376   0.149E-02    0.193E-02
DAV:   4    -0.138667459724E+04    0.66731E-05   -0.48207E-05  4960   0.483E-03    0.124E-02
DAV:   5    -0.138667459564E+04    0.16042E-05   -0.16939E-05  4864   0.296E-03    0.259E-03
DAV:   6    -0.138667459571E+04   -0.68685E-07   -0.15090E-06  4768   0.840E-04    0.108E-03
DAV:   7    -0.138667459572E+04   -0.10667E-07   -0.25283E-07  4736   0.399E-04    0.655E-04
DAV:   8    -0.138667459581E+04   -0.90062E-07   -0.57157E-08  3936   0.197E-04    0.233E-04
DAV:   9    -0.138667459591E+04   -0.98575E-07   -0.13770E-08  3552   0.102E-04    0.145E-04
DAV:  10    -0.138667459605E+04   -0.14144E-06   -0.64830E-09  3264   0.792E-05    0.901E-05
DAV:  11    -0.138667459617E+04   -0.12387E-06   -0.61947E-09  3296   0.758E-05    0.549E-05
DAV:  12    -0.138667459629E+04   -0.11787E-06   -0.67225E-09  3232   0.913E-05    0.383E-05
DAV:  13    -0.138667459635E+04   -0.65251E-07   -0.44130E-09  3104   0.898E-05    0.301E-05
DAV:  14    -0.138667459639E+04   -0.36816E-07   -0.23401E-09  3008   0.676E-05    0.191E-05
DAV:  15    -0.138667459643E+04   -0.34255E-07   -0.16252E-09  3008   0.475E-05    0.132E-05
DAV:  16    -0.138667459644E+04   -0.10201E-07   -0.21503E-10  2944   0.286E-05    0.110E-05
DAV:  17    -0.138667459644E+04   -0.78726E-08    0.21754E-10  2880   0.216E-05
  35 F= -.14062614E+04 E0= -.14062614E+04  d E =-.431776E-03  mag=     0.0000
       N       E                     dE             d eps       ncg     rms          rms(c)
DAV:   1    -0.138667456063E+04    0.35804E-04   -0.75063E-02  5024   0.195E-01    0.922E-02
DAV:   2    -0.138667454013E+04    0.20499E-04   -0.64687E-04  5248   0.188E-02    0.533E-02
DAV:   3    -0.138667453067E+04    0.94636E-05   -0.21138E-04  5504   0.106E-02    0.133E-02
DAV:   4    -0.138667452750E+04    0.31742E-05   -0.23676E-05  4960   0.361E-03    0.775E-03
DAV:   5    -0.138667452729E+04    0.20255E-06   -0.83660E-06  4864   0.212E-03    0.163E-03
DAV:   6    -0.138667452736E+04   -0.70228E-07   -0.56978E-07  4512   0.615E-04    0.848E-04
DAV:   7    -0.138667452740E+04   -0.36889E-07   -0.77002E-08  4384   0.224E-04    0.322E-04
DAV:   8    -0.138667452747E+04   -0.67375E-07   -0.16173E-08  3552   0.125E-04    0.175E-04
DAV:   9    -0.138667452754E+04   -0.68729E-07   -0.52733E-09  3200   0.911E-05    0.841E-05
DAV:  10    -0.138667452761E+04   -0.78173E-07   -0.50586E-09  3200   0.860E-05    0.669E-05
DAV:  11    -0.138667452766E+04   -0.49506E-07   -0.22928E-09  3072   0.630E-05    0.491E-05
DAV:  12    -0.138667452772E+04   -0.54293E-07   -0.32851E-09  3104   0.685E-05    0.248E-05
DAV:  13    -0.138667452774E+04   -0.20358E-07   -0.16112E-09  3008   0.570E-05    0.272E-05
DAV:  14    -0.138667452776E+04   -0.18161E-07   -0.82055E-10  3008   0.442E-05    0.137E-05
DAV:  15    -0.138667452777E+04   -0.11787E-07   -0.37784E-10  2944   0.324E-05    0.136E-05
DAV:  16    -0.138667452777E+04   -0.22992E-08    0.34454E-10  2752   0.204E-05
  36 F= -.14062613E+04 E0= -.14062613E+04  d E =0.798822E-04  mag=    -0.0000
       N       E                     dE             d eps       ncg     rms          rms(c)
DAV:   1    -0.138667413026E+04    0.39751E-03   -0.73795E-02  5248   0.194E-01    0.841E-02
DAV:   2    -0.138667413948E+04   -0.92176E-05   -0.59761E-04  5312   0.168E-02    0.500E-02
DAV:   3    -0.138667413410E+04    0.53808E-05   -0.13706E-04  5440   0.840E-03    0.101E-02
DAV:   4    -0.138667413236E+04    0.17360E-05   -0.15311E-05  4800   0.275E-03    0.605E-03
DAV:   5    -0.138667413214E+04    0.21690E-06   -0.63090E-06  4928   0.179E-03    0.148E-03
DAV:   6    -0.138667413228E+04   -0.13635E-06   -0.63102E-07  4704   0.622E-04    0.752E-04
DAV:   7    -0.138667413244E+04   -0.16433E-06   -0.73635E-08  4320   0.258E-04    0.302E-04
DAV:   8    -0.138667413262E+04   -0.17833E-06   -0.24964E-08  3776   0.145E-04    0.209E-04
DAV:   9    -0.138667413282E+04   -0.19428E-06   -0.11458E-08  3488   0.106E-04    0.103E-04
DAV:  10    -0.138667413296E+04   -0.14649E-06   -0.73988E-09  3264   0.834E-05    0.628E-05
DAV:  11    -0.138667413308E+04   -0.12016E-06   -0.61748E-09  3200   0.863E-05    0.567E-05
DAV:  12    -0.138667413314E+04   -0.56214E-07   -0.38347E-09  3008   0.954E-05    0.352E-05
DAV:  13    -0.138667413320E+04   -0.58295E-07   -0.45769E-09  3072   0.844E-05    0.317E-05
DAV:  14    -0.138667413321E+04   -0.17782E-07   -0.92772E-10  3008   0.489E-05    0.303E-05
DAV:  15    -0.138667413323E+04   -0.13271E-07   -0.64591E-11  2944   0.327E-05    0.208E-05
DAV:  16    -0.138667413324E+04   -0.76980E-08    0.24433E-10  2944   0.252E-05
  37 F= -.14062608E+04 E0= -.14062608E+04  d E =0.522025E-03  mag=     0.0000
       N       E                     dE             d eps       ncg     rms          rms(c)
DAV:   1    -0.138667460649E+04   -0.47326E-03   -0.77963E-02  5248   0.214E-01    0.107E-01
DAV:   2    -0.138667455458E+04    0.51903E-04   -0.11467E-03  5472   0.254E-02    0.643E-02
DAV:   3    -0.138667452842E+04    0.26159E-04   -0.57828E-04  5440   0.173E-02    0.230E-02
DAV:   4    -0.138667451793E+04    0.10499E-04   -0.65413E-05  5376   0.581E-03    0.145E-02
DAV:   5    -0.138667451589E+04    0.20380E-05   -0.23561E-05  4992   0.363E-03    0.302E-03
DAV:   6    -0.138667451590E+04   -0.13650E-07   -0.20938E-06  5312   0.117E-03    0.122E-03
DAV:   7    -0.138667451602E+04   -0.11850E-06   -0.25566E-07  4896   0.395E-04    0.745E-04
DAV:   8    -0.138667451616E+04   -0.13586E-06   -0.40073E-08  4128   0.240E-04    0.306E-04
DAV:   9    -0.138667451629E+04   -0.13172E-06   -0.17934E-08  3792   0.164E-04    0.155E-04
DAV:  10    -0.138667451639E+04   -0.10437E-06   -0.51961E-09  3136   0.106E-04    0.967E-05
DAV:  11    -0.138667451651E+04   -0.11441E-06   -0.54658E-09  3200   0.997E-05    0.669E-05
DAV:  12    -0.138667451659E+04   -0.84372E-07   -0.51004E-09  3168   0.947E-05    0.404E-05
DAV:  13    -0.138667451664E+04   -0.48298E-07   -0.33622E-09  3008   0.820E-05    0.326E-05
DAV:  14    -0.138667451666E+04   -0.25102E-07   -0.25785E-09  3008   0.782E-05    0.211E-05
DAV:  15    -0.138667451668E+04   -0.16502E-07   -0.15530E-09  3008   0.632E-05    0.181E-05
DAV:  16    -0.138667451669E+04   -0.54570E-08   -0.20706E-10  2944   0.347E-05
  38 F= -.14062614E+04 E0= -.14062614E+04  d E =-.555867E-03  mag=    -0.0000
       N       E                     dE             d eps       ncg     rms          rms(c)
DAV:   1    -0.138667426169E+04    0.25499E-03   -0.77053E-02  4992   0.212E-01    0.103E-01
DAV:   2    -0.138667419833E+04    0.63366E-04   -0.78573E-04  5248   0.222E-02    0.586E-02
DAV:   3    -0.138667418091E+04    0.17422E-04   -0.33389E-04  5408   0.135E-02    0.173E-02
DAV:   4    -0.138667417523E+04    0.56773E-05   -0.35154E-05  5312   0.449E-03    0.107E-02
DAV:   5    -0.138667417463E+04    0.60366E-06   -0.12316E-05  5024   0.261E-03    0.202E-03
DAV:   6    -0.138667417467E+04   -0.49360E-07   -0.86756E-07  5024   0.853E-04    0.958E-04
DAV:   7    -0.138667417468E+04   -0.20373E-08   -0.11321E-07  4496   0.267E-04    0.546E-04
DAV:   8    -0.138667417473E+04   -0.53551E-07   -0.24673E-08  3936   0.203E-04    0.205E-04
DAV:   9    -0.138667417477E+04   -0.43830E-07   -0.89404E-09  3360   0.134E-04    0.124E-04
DAV:  10    -0.138667417484E+04   -0.69864E-07   -0.71317E-09  3232   0.121E-04    0.104E-04
DAV:  11    -0.138667417489E+04   -0.43336E-07   -0.37836E-09  3040   0.108E-04    0.706E-05
DAV:  12    -0.138667417495E+04   -0.61264E-07   -0.77917E-09  3168   0.138E-04    0.682E-05
DAV:  13    -0.138667417498E+04   -0.29162E-07   -0.41313E-09  3008   0.105E-04    0.603E-05
DAV:  14    -0.138667417500E+04   -0.18030E-07   -0.17515E-09  2944   0.666E-05    0.273E-05
DAV:  15    -0.138667417502E+04   -0.28231E-07   -0.15754E-09  2912   0.520E-05    0.460E-05
DAV:  16    -0.138667417503E+04   -0.82509E-08   -0.33692E-10  2944   0.351E-05
  39 F= -.14062610E+04 E0= -.14062610E+04  d E =0.332373E-03  mag=     0.0000
       N       E                     dE             d eps       ncg     rms          rms(c)
DAV:   1    -0.138667429091E+04   -0.11589E-03   -0.73271E-02  4992   0.208E-01    0.800E-02
DAV:   2    -0.138667431568E+04   -0.24768E-04   -0.54752E-04  5280   0.164E-02    0.481E-02
DAV:   3    -0.138667431199E+04    0.36893E-05   -0.80430E-05  5344   0.660E-03    0.604E-03
DAV:   4    -0.138667431178E+04    0.21439E-06   -0.74422E-06  4960   0.191E-03    0.356E-03
DAV:   5    -0.138667431162E+04    0.15929E-06   -0.24737E-06  4720   0.119E-03    0.122E-03
DAV:   6    -0.138667431168E+04   -0.63636E-07   -0.36232E-07  4624   0.528E-04    0.592E-04
DAV:   7    -0.138667431178E+04   -0.97061E-07   -0.54446E-08  4064   0.217E-04    0.226E-04
DAV:   8    -0.138667431188E+04   -0.10757E-06   -0.13687E-08  3520   0.102E-04    0.152E-04
DAV:   9    -0.138667431204E+04   -0.16061E-06   -0.98151E-09  3488   0.103E-04    0.786E-05
DAV:  10    -0.138667431215E+04   -0.10921E-06   -0.49393E-09  3168   0.830E-05    0.507E-05
DAV:  11    -0.138667431224E+04   -0.83310E-07   -0.40515E-09  3136   0.885E-05    0.387E-05
DAV:  12    -0.138667431230E+04   -0.59794E-07   -0.36617E-09  3008   0.922E-05    0.284E-05
DAV:  13    -0.138667431234E+04   -0.40643E-07   -0.23678E-09  3008   0.665E-05    0.152E-05
DAV:  14    -0.138667431237E+04   -0.29759E-07   -0.14185E-09  3008   0.450E-05    0.152E-05
DAV:  15    -0.138667431238E+04   -0.97498E-08   -0.15872E-10  2944   0.294E-05
  40 F= -.14062609E+04 E0= -.14062609E+04  d E =0.138327E-03  mag=    -0.0000
       N       E                     dE             d eps       ncg     rms          rms(c)
DAV:   1    -0.138667461524E+04   -0.30287E-03   -0.76630E-02  5056   0.215E-01    0.102E-01
DAV:   2    -0.138667458827E+04    0.26963E-04   -0.98050E-04  5440   0.233E-02    0.609E-02
DAV:   3    -0.138667456557E+04    0.22708E-04   -0.38935E-04  5312   0.144E-02    0.193E-02
DAV:   4    -0.138667455919E+04    0.63785E-05   -0.41117E-05  5248   0.464E-03    0.118E-02
DAV:   5    -0.138667455803E+04    0.11535E-05   -0.16413E-05  4864   0.290E-03    0.221E-03
DAV:   6    -0.138667455818E+04   -0.14469E-06   -0.12458E-06  4832   0.949E-04    0.106E-03
DAV:   7    -0.138667455838E+04   -0.19856E-06   -0.18418E-07  5056   0.336E-04    0.616E-04
DAV:   8    -0.138667455867E+04   -0.28728E-06   -0.48900E-08  4096   0.227E-04    0.242E-04
DAV:   9    -0.138667455885E+04   -0.18091E-06   -0.15079E-08  3712   0.142E-04    0.153E-04
DAV:  10    -0.138667455905E+04   -0.20508E-06   -0.11522E-08  3552   0.121E-04    0.122E-04
DAV:  11    -0.138667455917E+04   -0.12085E-06   -0.43633E-09  3200   0.931E-05    0.778E-05
DAV:  12    -0.138667455930E+04   -0.12822E-06   -0.83677E-09  3360   0.109E-04    0.669E-05
DAV:  13    -0.138667455935E+04   -0.48749E-07   -0.30011E-09  3008   0.885E-05    0.505E-05
DAV:  14    -0.138667455939E+04   -0.42142E-07   -0.31510E-09  3008   0.836E-05    0.361E-05
DAV:  15    -0.138667455942E+04   -0.32116E-07   -0.23528E-09  3008   0.660E-05    0.510E-05
DAV:  16    -0.138667455943E+04   -0.97352E-08   -0.33737E-10  2944   0.367E-05
  41 F= -.14062615E+04 E0= -.14062615E+04  d E =-.554954E-03  mag=    -0.0000
       N       E                     dE             d eps       ncg     rms          rms(c)
DAV:   1    -0.138667414588E+04    0.41354E-03   -0.77125E-02  4448   0.201E-01    0.104E-01
DAV:   2    -0.138667407831E+04    0.67578E-04   -0.82040E-04  4800   0.215E-02    0.592E-02
DAV:   3    -0.138667406105E+04    0.17261E-04   -0.35260E-04  5024   0.133E-02    0.179E-02
DAV:   4    -0.138667405521E+04    0.58393E-05   -0.34521E-05  4576   0.442E-03    0.112E-02
DAV:   5    -0.138667405451E+04    0.70009E-06   -0.12520E-05  4864   0.265E-03    0.213E-03
DAV:   6    -0.138667405461E+04   -0.10808E-06   -0.99493E-07  4704   0.767E-04    0.932E-04
DAV:   7    -0.138667405481E+04   -0.19111E-06   -0.16117E-07  4736   0.298E-04    0.528E-04
DAV:   8    -0.138667405499E+04   -0.18293E-06   -0.28944E-08  3840   0.155E-04    0.198E-04
DAV:   9    -0.138667405515E+04   -0.16412E-06   -0.10375E-08  3456   0.976E-05    0.130E-04
DAV:  10    -0.138667405532E+04   -0.16508E-06   -0.75329E-09  3360   0.106E-04    0.695E-05
DAV:  11    -0.138667405543E+04   -0.11578E-06   -0.65661E-09  3232   0.124E-04    0.508E-05
DAV:  12    -0.138667405551E+04   -0.73487E-07   -0.56043E-09  3168   0.114E-04    0.349E-05
DAV:  13    -0.138667405558E+04   -0.70693E-07   -0.37268E-09  3104   0.734E-05    0.305E-05
DAV:  14    -0.138667405562E+04   -0.37748E-07   -0.16848E-09  2944   0.536E-05    0.176E-05
DAV:  15    -0.138667405565E+04   -0.31243E-07   -0.13211E-09  3008   0.451E-05    0.217E-05
DAV:  16    -0.138667405566E+04   -0.93860E-08   -0.17676E-10  2944   0.294E-05
  42 F= -.14062610E+04 E0= -.14062610E+04  d E =0.496571E-03  mag=     0.0000
       N       E                     dE             d eps       ncg     rms          rms(c)
DAV:   1    -0.138667422844E+04   -0.17279E-03   -0.72365E-02  4416   0.197E-01    0.768E-02
DAV:   2    -0.138667425486E+04   -0.26427E-04   -0.50298E-04  4864   0.149E-02    0.464E-02
DAV:   3    -0.138667425502E+04   -0.15312E-06   -0.64152E-05  5472   0.600E-03    0.445E-03
DAV:   4    -0.138667425533E+04   -0.30974E-06   -0.53715E-06  5472   0.163E-03    0.275E-03
DAV:   5    -0.138667425543E+04   -0.10632E-06   -0.12623E-06  4512   0.992E-04    0.996E-04
DAV:   6    -0.138667425566E+04   -0.22685E-06   -0.19651E-07  4992   0.434E-04    0.530E-04
DAV:   7    -0.138667425592E+04   -0.25975E-06   -0.35718E-08  3840   0.159E-04    0.241E-04
DAV:   8    -0.138667425621E+04   -0.29073E-06   -0.14321E-08  3584   0.951E-05    0.152E-04
DAV:   9    -0.138667425657E+04   -0.36022E-06   -0.19047E-08  3904   0.113E-04    0.840E-05
DAV:  10    -0.138667425677E+04   -0.20019E-06   -0.75051E-09  3328   0.917E-05    0.607E-05
DAV:  11    -0.138667425692E+04   -0.14849E-06   -0.72884E-09  3280   0.116E-04    0.421E-05
DAV:  12    -0.138667425701E+04   -0.88330E-07   -0.63625E-09  3200   0.118E-04    0.329E-05
DAV:  13    -0.138667425706E+04   -0.56054E-07   -0.32177E-09  3040   0.717E-05    0.165E-05
DAV:  14    -0.138667425710E+04   -0.34241E-07   -0.16738E-09  2944   0.490E-05    0.176E-05
DAV:  15    -0.138667425710E+04   -0.69704E-08   -0.27988E-10  2944   0.329E-05
  43 F= -.14062610E+04 E0= -.14062610E+04  d E =-.783402E-04  mag=     0.0000
       N       E                     dE             d eps       ncg     rms          rms(c)
DAV:   1    -0.138667438335E+04   -0.12625E-03   -0.76020E-02  4928   0.207E-01    0.984E-02
DAV:   2    -0.138667440260E+04   -0.19253E-04   -0.95419E-04  5536   0.226E-02    0.614E-02
DAV:   3    -0.138667437910E+04    0.23495E-04   -0.21603E-04  5440   0.112E-02    0.124E-02
DAV:   4    -0.138667437629E+04    0.28179E-05   -0.20978E-05  5120   0.359E-03    0.786E-03
DAV:   5    -0.138667437539E+04    0.89653E-06   -0.10542E-05  4736   0.241E-03    0.193E-03
DAV:   6    -0.138667437550E+04   -0.11225E-06   -0.91752E-07  4544   0.812E-04    0.101E-03
DAV:   7    -0.138667437557E+04   -0.69107E-07   -0.11307E-07  4448   0.324E-04    0.429E-04
DAV:   8    -0.138667437570E+04   -0.13401E-06   -0.39393E-08  4032   0.185E-04    0.236E-04
DAV:   9    -0.138667437586E+04   -0.15312E-06   -0.11724E-08  3392   0.118E-04    0.105E-04
DAV:  10    -0.138667437602E+04   -0.16279E-06   -0.13039E-08  3824   0.131E-04    0.103E-04
DAV:  11    -0.138667437613E+04   -0.11241E-06   -0.71762E-09  3264   0.132E-04    0.639E-05
DAV:  12    -0.138667437622E+04   -0.89960E-07   -0.84249E-09  3328   0.132E-04    0.437E-05
DAV:  13    -0.138667437627E+04   -0.46362E-07   -0.45308E-09  3008   0.102E-04    0.474E-05
DAV:  14    -0.138667437630E+04   -0.32189E-07   -0.25206E-09  3008   0.632E-05    0.240E-05
DAV:  15    -0.138667437631E+04   -0.13228E-07   -0.85081E-10  2944   0.401E-05    0.139E-05
[...]
DAV:   3    -0.138667274173E+04    0.99309E-04   -0.56028E-04  5440   0.186E-02    0.295E-02
DAV:   4    -0.138667274549E+04   -0.37554E-05   -0.91871E-05  5760   0.652E-03    0.121E-02
DAV:   5    -0.138667274384E+04    0.16505E-05   -0.21378E-05  5248   0.359E-03    0.399E-03
DAV:   6    -0.138667274432E+04   -0.48568E-06   -0.21332E-06  4896   0.117E-03    0.180E-03
DAV:   7    -0.138667274469E+04   -0.36815E-06   -0.38788E-07  5088   0.648E-04    0.642E-04
DAV:   8    -0.138667274495E+04   -0.25902E-06   -0.97719E-08  5008   0.362E-04    0.323E-04
DAV:   9    -0.138667274518E+04   -0.23618E-06   -0.15914E-08  3552   0.178E-04    0.198E-04
DAV:  10    -0.138667274547E+04   -0.28743E-06   -0.14473E-08  3520   0.183E-04    0.108E-04
DAV:  11    -0.138667274572E+04   -0.24414E-06   -0.13291E-08  3680   0.164E-04    0.729E-05
DAV:  12    -0.138667274588E+04   -0.16441E-06   -0.62315E-09  3072   0.111E-04    0.576E-05
DAV:  13    -0.138667274600E+04   -0.12373E-06   -0.42514E-09  3072   0.777E-05    0.344E-05
DAV:  14    -0.138667274610E+04   -0.91459E-07   -0.32942E-09  3072   0.580E-05    0.188E-05
DAV:  15    -0.138667274614E+04   -0.41444E-07   -0.13699E-09  3008   0.431E-05    0.136E-05
DAV:  16    -0.138667274616E+04   -0.23661E-07   -0.42576E-10  2944   0.352E-05    0.107E-05
DAV:  17    -0.138667274618E+04   -0.17928E-07   -0.12267E-10  3008   0.315E-05    0.748E-06
DAV:  18    -0.138667274618E+04   -0.57771E-08    0.38949E-10  2944   0.239E-05
  66 F= -.14062595E+04 E0= -.14062595E+04  d E =0.215838E-03  mag=    -0.0000
       N       E                     dE             d eps       ncg     rms          rms(c)
DAV:   1    -0.138667206033E+04    0.68585E-03   -0.49120E-01  5056   0.592E-01    0.136E-01
DAV:   2    -0.138667215573E+04   -0.95401E-04   -0.36184E-03  5312   0.459E-02    0.857E-02
DAV:   3    -0.138667205254E+04    0.10319E-03   -0.55391E-04  5616   0.195E-02    0.196E-02
DAV:   4    -0.138667205921E+04   -0.66705E-05   -0.10694E-04  6240   0.599E-03    0.935E-03
DAV:   5    -0.138667205844E+04    0.76955E-06   -0.11451E-05  5440   0.275E-03    0.432E-03
DAV:   6    -0.138667205955E+04   -0.11081E-05   -0.13113E-06  5664   0.101E-03    0.185E-03
DAV:   7    -0.138667206106E+04   -0.15066E-05   -0.37977E-07  5024   0.725E-04    0.608E-04
DAV:   8    -0.138667206246E+04   -0.14000E-05   -0.15833E-07  5024   0.424E-04    0.422E-04
DAV:   9    -0.138667206361E+04   -0.11562E-05   -0.29782E-08  4000   0.184E-04    0.267E-04
DAV:  10    -0.138667206554E+04   -0.19250E-05   -0.86586E-08  4096   0.261E-04    0.162E-04
DAV:  11    -0.138667206635E+04   -0.80923E-06   -0.31777E-08  4256   0.172E-04    0.114E-04
DAV:  12    -0.138667206692E+04   -0.56690E-06   -0.10044E-08  3344   0.105E-04    0.779E-05
DAV:  13    -0.138667206753E+04   -0.61905E-06   -0.23087E-08  3920   0.117E-04    0.493E-05
DAV:  14    -0.138667206771E+04   -0.17315E-06   -0.62899E-09  3120   0.132E-04    0.347E-05
DAV:  15    -0.138667206784E+04   -0.13673E-06   -0.54145E-09  3104   0.113E-04    0.256E-05
DAV:  16    -0.138667206791E+04   -0.63097E-07   -0.20445E-09  3008   0.708E-05    0.211E-05
DAV:  17    -0.138667206795E+04   -0.37267E-07   -0.10173E-09  2976   0.556E-05    0.131E-05
DAV:  18    -0.138667206796E+04   -0.11176E-07    0.34235E-11  2944   0.382E-05    0.167E-05
DAV:  19    -0.138667206796E+04   -0.32014E-08    0.52264E-10  2752   0.166E-05
  67 F= -.14062587E+04 E0= -.14062587E+04  d E =0.839034E-03  mag=    -0.0000
       N       E                     dE             d eps       ncg     rms          rms(c)
DAV:   1    -0.138667254338E+04   -0.47542E-03   -0.48900E-01  5056   0.601E-01    0.136E-01
DAV:   2    -0.138667278285E+04   -0.23947E-03   -0.50020E-03  5408   0.550E-02    0.873E-02
DAV:   3    -0.138667267200E+04    0.11085E-03   -0.52341E-04  5472   0.181E-02    0.318E-02
DAV:   4    -0.138667267630E+04   -0.43086E-05   -0.12524E-04  5696   0.713E-03    0.107E-02
DAV:   5    -0.138667267478E+04    0.15217E-05   -0.20643E-05  5408   0.345E-03    0.455E-03
DAV:   6    -0.138667267560E+04   -0.81635E-06   -0.24138E-06  5024   0.115E-03    0.187E-03
DAV:   7    -0.138667267659E+04   -0.98854E-06   -0.47023E-07  4592   0.612E-04    0.755E-04
DAV:   8    -0.138667267741E+04   -0.82731E-06   -0.13941E-07  5200   0.338E-04    0.325E-04
DAV:   9    -0.138667267802E+04   -0.60177E-06   -0.26308E-08  3808   0.136E-04    0.219E-04
DAV:  10    -0.138667267903E+04   -0.10117E-05   -0.42785E-08  4192   0.137E-04    0.132E-04
DAV:  11    -0.138667267974E+04   -0.70792E-06   -0.27869E-08  4000   0.127E-04    0.842E-05
DAV:  12    -0.138667268024E+04   -0.50162E-06   -0.17505E-08  3744   0.113E-04    0.661E-05
DAV:  13    -0.138667268056E+04   -0.32010E-06   -0.10493E-08  3360   0.109E-04    0.456E-05
DAV:  14    -0.138667268078E+04   -0.22640E-06   -0.89622E-09  3392   0.948E-05    0.310E-05
DAV:  15    -0.138667268088E+04   -0.92972E-07   -0.24046E-09  3072   0.677E-05    0.227E-05
DAV:  16    -0.138667268095E+04   -0.69311E-07   -0.17503E-09  2976   0.563E-05    0.169E-05
DAV:  17    -0.138667268097E+04   -0.24796E-07   -0.50597E-10  2944   0.443E-05    0.157E-05
DAV:  18    -0.138667268099E+04   -0.14479E-07    0.25359E-10  2912   0.268E-05    0.785E-06
DAV:  19    -0.138667268099E+04   -0.88185E-08    0.49729E-10  2912   0.191E-05
  68 F= -.14062596E+04 E0= -.14062596E+04  d E =-.906708E-03  mag=    -0.0000
       N       E                     dE             d eps       ncg     rms          rms(c)
DAV:   1    -0.138667239003E+04    0.29096E-03   -0.48638E-01  4992   0.599E-01    0.141E-01
DAV:   2    -0.138667253690E+04   -0.14687E-03   -0.43918E-03  5312   0.533E-02    0.834E-02
DAV:   3    -0.138667243426E+04    0.10264E-03   -0.54418E-04  5536   0.180E-02    0.299E-02
DAV:   4    -0.138667243550E+04   -0.12372E-05   -0.75744E-05  5792   0.629E-03    0.117E-02
DAV:   5    -0.138667243471E+04    0.79101E-06   -0.14595E-05  5088   0.272E-03    0.433E-03
DAV:   6    -0.138667243506E+04   -0.35070E-06   -0.20720E-06  5408   0.107E-03    0.165E-03
DAV:   7    -0.138667243529E+04   -0.22948E-06   -0.23266E-07  4448   0.476E-04    0.497E-04
DAV:   8    -0.138667243548E+04   -0.19625E-06   -0.59157E-08  4480   0.237E-04    0.247E-04
DAV:   9    -0.138667243562E+04   -0.13752E-06   -0.80471E-09  3264   0.115E-04    0.137E-04
DAV:  10    -0.138667243580E+04   -0.17400E-06   -0.63308E-09  3296   0.998E-05    0.732E-05
DAV:  11    -0.138667243593E+04   -0.13558E-06   -0.43935E-09  3200   0.924E-05    0.471E-05
DAV:  12    -0.138667243606E+04   -0.12558E-06   -0.53863E-09  3200   0.974E-05    0.319E-05
DAV:  13    -0.138667243613E+04   -0.73545E-07   -0.38490E-09  3072   0.907E-05    0.260E-05
DAV:  14    -0.138667243618E+04   -0.48254E-07   -0.22334E-09  3008   0.677E-05    0.158E-05
DAV:  15    -0.138667243620E+04   -0.24884E-07   -0.83940E-10  3008   0.439E-05    0.111E-05
DAV:  16    -0.138667243622E+04   -0.13373E-07   -0.45199E-11  2912   0.312E-05    0.800E-06
DAV:  17    -0.138667243622E+04   -0.75815E-08    0.35212E-10  2912   0.235E-05
  69 F= -.14062593E+04 E0= -.14062593E+04  d E =0.347906E-03  mag=    -0.0000
       N       E                     dE             d eps       ncg     rms          rms(c)
DAV:   1    -0.138667263737E+04   -0.20116E-03   -0.49075E-01  4992   0.589E-01    0.139E-01
DAV:   2    -0.138667272187E+04   -0.84498E-04   -0.36499E-03  5312   0.467E-02    0.870E-02
DAV:   3    -0.138667261211E+04    0.10976E-03   -0.53386E-04  5504   0.177E-02    0.243E-02
DAV:   4    -0.138667261491E+04   -0.28002E-05   -0.75616E-05  5760   0.554E-03    0.892E-03
DAV:   5    -0.138667261425E+04    0.66136E-06   -0.13098E-05  4928   0.267E-03    0.349E-03
DAV:   6    -0.138667261503E+04   -0.78222E-06   -0.12605E-06  5216   0.879E-04    0.168E-03
DAV:   7    -0.138667261631E+04   -0.12772E-05   -0.36573E-07  4352   0.544E-04    0.503E-04
DAV:   8    -0.138667261720E+04   -0.89500E-06   -0.10816E-07  4784   0.285E-04    0.377E-04
DAV:   9    -0.138667261816E+04   -0.96107E-06   -0.28071E-08  3808   0.133E-04    0.227E-04
DAV:  10    -0.138667261958E+04   -0.14230E-05   -0.62304E-08  4000   0.157E-04    0.150E-04
DAV:  11    -0.138667262033E+04   -0.74338E-06   -0.25697E-08  3808   0.118E-04    0.115E-04
DAV:  12    -0.138667262077E+04   -0.44402E-06   -0.95450E-09  3424   0.858E-05    0.755E-05
DAV:  13    -0.138667262114E+04   -0.37064E-06   -0.10704E-08  3552   0.793E-05    0.492E-05
DAV:  14    -0.138667262130E+04   -0.15378E-06   -0.30332E-09  3104   0.594E-05    0.339E-05
DAV:  15    -0.138667262139E+04   -0.94791E-07   -0.19070E-09  3008   0.478E-05    0.206E-05
DAV:  16    -0.138667262144E+04   -0.51135E-07   -0.11772E-09  2976   0.511E-05    0.134E-05
DAV:  17    -0.138667262146E+04   -0.18103E-07   -0.47308E-10  2944   0.434E-05    0.111E-05
DAV:  18    -0.138667262147E+04   -0.72905E-08    0.16317E-10  2912   0.267E-05
  70 F= -.14062592E+04 E0= -.14062592E+04  d E =0.739120E-04  mag=    -0.0000
       N       E                     dE             d eps       ncg     rms          rms(c)
DAV:   1    -0.138667267950E+04   -0.58037E-04   -0.50588E-01  4928   0.618E-01    0.144E-01
DAV:   2    -0.138667284718E+04   -0.16768E-03   -0.48057E-03  5248   0.559E-02    0.886E-02
DAV:   3    -0.138667272911E+04    0.11807E-03   -0.58519E-04  5504   0.184E-02    0.303E-02
DAV:   4    -0.138667273311E+04   -0.40026E-05   -0.93837E-05  5760   0.642E-03    0.108E-02
DAV:   5    -0.138667273218E+04    0.93307E-06   -0.16133E-05  5408   0.284E-03    0.388E-03
DAV:   6    -0.138667273239E+04   -0.21147E-06   -0.14902E-06  4896   0.926E-04    0.187E-03
DAV:   7    -0.138667273278E+04   -0.38272E-06   -0.38910E-07  4416   0.597E-04    0.571E-04
DAV:   8    -0.138667273304E+04   -0.26870E-06   -0.98275E-08  4688   0.303E-04    0.292E-04
DAV:   9    -0.138667273333E+04   -0.28359E-06   -0.16794E-08  3632   0.144E-04    0.181E-04
DAV:  10    -0.138667273374E+04   -0.41393E-06   -0.18322E-08  3872   0.143E-04    0.101E-04
DAV:  11    -0.138667273407E+04   -0.32529E-06   -0.14943E-08  3680   0.136E-04    0.722E-05
DAV:  12    -0.138667273427E+04   -0.20780E-06   -0.75531E-09  3520   0.109E-04    0.572E-05
DAV:  13    -0.138667273446E+04   -0.18098E-06   -0.77929E-09  3424   0.102E-04    0.346E-05
DAV:  14    -0.138667273456E+04   -0.10191E-06   -0.46659E-09  3296   0.804E-05    0.274E-05
DAV:  15    -0.138667273461E+04   -0.48312E-07   -0.17287E-09  2944   0.607E-05    0.161E-05
DAV:  16    -0.138667273465E+04   -0.46377E-07   -0.14464E-09  2976   0.554E-05    0.213E-05
DAV:  17    -0.138667273466E+04   -0.12806E-07   -0.24714E-10  2944   0.383E-05    0.180E-05
DAV:  18    -0.138667273468E+04   -0.10390E-07    0.30349E-10  2880   0.248E-05    0.717E-06
DAV:  19    -0.138667273468E+04   -0.93423E-08    0.52546E-10  2880   0.188E-05
  71 F= -.14062597E+04 E0= -.14062597E+04  d E =-.517513E-03  mag=    -0.0000
       N       E                     dE             d eps       ncg     rms          rms(c)
DAV:   1    -0.138667223866E+04    0.49601E-03   -0.48706E-01  4736   0.602E-01    0.139E-01
DAV:   2    -0.138667238419E+04   -0.14553E-03   -0.43172E-03  5248   0.535E-02    0.842E-02
DAV:   3    -0.138667228180E+04    0.10239E-03   -0.56084E-04  5440   0.183E-02    0.298E-02
DAV:   4    -0.138667228494E+04   -0.31447E-05   -0.91325E-05  5760   0.633E-03    0.117E-02
DAV:   5    -0.138667228359E+04    0.13521E-05   -0.16951E-05  4768   0.297E-03    0.401E-03
DAV:   6    -0.138667228412E+04   -0.52902E-06   -0.18317E-06  4832   0.105E-03    0.163E-03
DAV:   7    -0.138667228473E+04   -0.60817E-06   -0.22809E-07  4416   0.437E-04    0.517E-04
DAV:   8    -0.138667228524E+04   -0.50709E-06   -0.74361E-08  4864   0.242E-04    0.254E-04
DAV:   9    -0.138667228559E+04   -0.35047E-06   -0.11724E-08  3456   0.104E-04    0.172E-04
DAV:  10    -0.138667228617E+04   -0.58342E-06   -0.21084E-08  3968   0.110E-04    0.992E-05
DAV:  11    -0.138667228649E+04   -0.31575E-06   -0.75322E-09  3392   0.883E-05    0.721E-05
DAV:  12    -0.138667228675E+04   -0.26087E-06   -0.71580E-09  3360   0.857E-05    0.542E-05
DAV:  13    -0.138667228692E+04   -0.17310E-06   -0.48416E-09  3296   0.750E-05    0.370E-05
DAV:  14    -0.138667228703E+04   -0.11081E-06   -0.36475E-09  3008   0.640E-05    0.214E-05
DAV:  15    -0.138667228707E+04   -0.37762E-07   -0.15570E-09  2944   0.581E-05    0.175E-05
DAV:  16    -0.138667228709E+04   -0.18874E-07   -0.84273E-10  2944   0.507E-05    0.121E-05
DAV:  17    -0.138667228710E+04   -0.10026E-07   -0.29882E-11  2944   0.375E-05    0.970E-06
DAV:  18    -0.138667228710E+04   -0.50059E-08    0.42682E-10  2912   0.207E-05
  72 F= -.14062592E+04 E0= -.14062592E+04  d E =0.472576E-03  mag=     0.0000
       N       E                     dE             d eps       ncg     rms          rms(c)
DAV:   1    -0.138667278996E+04   -0.50287E-03   -0.48755E-01  4896   0.591E-01    0.138E-01
DAV:   2    -0.138667287755E+04   -0.87584E-04   -0.35947E-03  5248   0.481E-02    0.859E-02
DAV:   3    -0.138667277607E+04    0.10148E-03   -0.50743E-04  5504   0.180E-02    0.230E-02
DAV:   4    -0.138667278107E+04   -0.49936E-05   -0.79724E-05  5984   0.556E-03    0.989E-03
DAV:   5    -0.138667278006E+04    0.10073E-05   -0.12989E-05  5440   0.274E-03    0.379E-03
DAV:   6    -0.138667278032E+04   -0.26582E-06   -0.14383E-06  5056   0.105E-03    0.174E-03
DAV:   7    -0.138667278046E+04   -0.13171E-06   -0.35976E-07  4576   0.676E-04    0.436E-04
DAV:   8    -0.138667278060E+04   -0.14271E-06   -0.12262E-07  5072   0.315E-04    0.369E-04
DAV:   9    -0.138667278073E+04   -0.13587E-06   -0.14923E-08  3520   0.159E-04    0.184E-04
DAV:  10    -0.138667278090E+04   -0.16189E-06   -0.12669E-08  3680   0.181E-04    0.112E-04
DAV:  11    -0.138667278098E+04   -0.87297E-07   -0.60421E-09  3328   0.116E-04    0.820E-05
DAV:  12    -0.138667278107E+04   -0.88476E-07   -0.30682E-09  3072   0.921E-05    0.484E-05
DAV:  13    -0.138667278115E+04   -0.82815E-07   -0.36416E-09  3040   0.761E-05    0.351E-05
DAV:  14    -0.138667278121E+04   -0.59154E-07   -0.21270E-09  2944   0.616E-05    0.208E-05
DAV:  15    -0.138667278125E+04   -0.34983E-07   -0.18007E-09  3008   0.510E-05    0.156E-05
DAV:  16    -0.138667278126E+04   -0.10972E-07   -0.49040E-10  2944   0.384E-05    0.118E-05
DAV:  17    -0.138667278127E+04   -0.12820E-07   -0.14008E-10  2944   0.290E-05    0.101E-05
DAV:  18    -0.138667278128E+04   -0.41473E-08    0.38346E-10  2912   0.215E-05
  73 F= -.14062593E+04 E0= -.14062593E+04  d E =-.100884E-03  mag=     0.0000
       N       E                     dE             d eps       ncg     rms          rms(c)
DAV:   1    -0.138667252759E+04    0.25368E-03   -0.50955E-01  5056   0.613E-01    0.141E-01
DAV:   2    -0.138667263098E+04   -0.10339E-03   -0.43785E-03  5344   0.535E-02    0.918E-02
DAV:   3    -0.138667249679E+04    0.13419E-03   -0.74008E-04  5376   0.209E-02    0.218E-02
DAV:   4    -0.138667250322E+04   -0.64271E-05   -0.10030E-04  5696   0.597E-03    0.105E-02
DAV:   5    -0.138667250199E+04    0.12297E-05   -0.12682E-05  5408   0.281E-03    0.394E-03
DAV:   6    -0.138667250224E+04   -0.25226E-06   -0.14838E-06  4928   0.104E-03    0.184E-03
DAV:   7    -0.138667250262E+04   -0.37234E-06   -0.42551E-07  4512   0.564E-04    0.507E-04
DAV:   8    -0.138667250298E+04   -0.36485E-06   -0.94874E-08  4512   0.245E-04    0.324E-04
DAV:   9    -0.138667250341E+04   -0.42825E-06   -0.25081E-08  3968   0.147E-04    0.191E-04
DAV:  10    -0.138667250384E+04   -0.43413E-06   -0.17495E-08  4000   0.116E-04    0.107E-04
DAV:  11    -0.138667250419E+04   -0.34632E-06   -0.12400E-08  3872   0.925E-05    0.819E-05
DAV:  12    -0.138667250444E+04   -0.24968E-06   -0.62120E-09  3264   0.658E-05    0.599E-05
DAV:  13    -0.138667250466E+04   -0.22577E-06   -0.87140E-09  3584   0.678E-05    0.349E-05
DAV:  14    -0.138667250478E+04   -0.11409E-06   -0.25520E-09  2944   0.512E-05    0.225E-05
DAV:  15    -0.138667250485E+04   -0.75932E-07   -0.22308E-09  3008   0.495E-05    0.160E-05
DAV:  16    -0.138667250488E+04   -0.30137E-07   -0.83833E-10  2944   0.454E-05    0.113E-05
DAV:  17    -0.138667250491E+04   -0.27198E-07   -0.22335E-10  2944   0.331E-05    0.679E-06
DAV:  18    -0.138667250492E+04   -0.12646E-07    0.30402E-10  2944   0.223E-05    0.651E-06
DAV:  19    -0.138667250493E+04   -0.27794E-08    0.58543E-10  2752   0.139E-05
  74 F= -.14062593E+04 E0= -.14062593E+04  d E =-.641736E-05  mag=    -0.0000
       N       E                     dE             d eps       ncg     rms          rms(c)
DAV:   1    -0.138667263914E+04   -0.13421E-03   -0.50024E-01  4992   0.610E-01    0.144E-01
DAV:   2    -0.138667256523E+04    0.73907E-04   -0.28778E-03  5280   0.464E-02    0.888E-02
DAV:   3    -0.138667244270E+04    0.12253E-03   -0.67288E-04  5440   0.213E-02    0.152E-02
DAV:   4    -0.138667245240E+04   -0.96990E-05   -0.10535E-04  5760   0.568E-03    0.816E-03
DAV:   5    -0.138667245217E+04    0.22798E-06   -0.80970E-06  6144   0.224E-03    0.342E-03
DAV:   6    -0.138667245237E+04   -0.19206E-06   -0.12392E-06  5392   0.113E-03    0.136E-03
DAV:   7    -0.138667245259E+04   -0.22762E-06   -0.21497E-07  5296   0.518E-04    0.451E-04
DAV:   8    -0.138667245280E+04   -0.20429E-06   -0.36836E-08  4256   0.247E-04    0.261E-04
DAV:   9    -0.138667245300E+04   -0.20341E-06   -0.91850E-09  3328   0.175E-04    0.139E-04
DAV:  10    -0.138667245320E+04   -0.19818E-06   -0.13691E-08  3712   0.176E-04    0.884E-05
DAV:  11    -0.138667245329E+04   -0.92346E-07   -0.42589E-09  3072   0.979E-05    0.664E-05
DAV:  12    -0.138667245338E+04   -0.86584E-07   -0.31579E-09  3072   0.760E-05    0.369E-05
DAV:  13    -0.138667245344E+04   -0.66299E-07   -0.25005E-09  3008   0.621E-05    0.316E-05
DAV:  14    -0.138667245348E+04   -0.38854E-07   -0.14634E-09  2944   0.571E-05    0.175E-05
DAV:  15    -0.138667245351E+04   -0.26776E-07   -0.13390E-09  3008   0.498E-05    0.196E-05
DAV:  16    -0.138667245352E+04   -0.61118E-08    0.36335E-11  2944   0.309E-05
  75 F= -.14062593E+04 E0= -.14062593E+04  d E =0.332553E-04  mag=     0.0000
       N       E                     dE             d eps       ncg     rms          rms(c)
DAV:   1    -0.138667304607E+04   -0.59256E-03   -0.50276E-01  4992   0.607E-01    0.143E-01
DAV:   2    -0.138667298493E+04    0.61148E-04   -0.29132E-03  5312   0.458E-02    0.911E-02
DAV:   3    -0.138667284903E+04    0.13589E-03   -0.72809E-04  5568   0.222E-02    0.145E-02
DAV:   4    -0.138667286253E+04   -0.13490E-04   -0.13927E-04  5856   0.581E-03    0.876E-03
DAV:   5    -0.138667286212E+04    0.40662E-06   -0.73686E-06  5600   0.222E-03    0.452E-03
DAV:   6    -0.138667286288E+04   -0.75717E-06   -0.12833E-06  5312   0.107E-03    0.164E-03
DAV:   7    -0.138667286360E+04   -0.72882E-06   -0.26812E-07  5216   0.582E-04    0.459E-04
DAV:   8    -0.138667286417E+04   -0.56917E-06   -0.47553E-08  4416   0.266E-04    0.314E-04
DAV:   9    -0.138667286479E+04   -0.61590E-06   -0.17246E-08  3584   0.173E-04    0.177E-04
DAV:  10    -0.138667286547E+04   -0.68398E-06   -0.26439E-08  4128   0.179E-04    0.123E-04
DAV:  11    -0.138667286587E+04   -0.39891E-06   -0.11330E-08  3488   0.131E-04    0.755E-05
DAV:  12    -0.138667286619E+04   -0.32190E-06   -0.88661E-09  3552   0.108E-04    0.585E-05
DAV:  13    -0.138667286635E+04   -0.15220E-06   -0.38135E-09  3040   0.827E-05    0.409E-05
DAV:  14    -0.138667286647E+04   -0.12142E-06   -0.43713E-09  3104   0.843E-05    0.277E-05
DAV:  15    -0.138667286652E+04   -0.50597E-07   -0.21945E-09  3008   0.688E-05    0.328E-05
DAV:  16    -0.138667286654E+04   -0.21697E-07   -0.69657E-10  2944   0.495E-05    0.165E-05
DAV:  17    -0.138667286655E+04   -0.13664E-07   -0.58898E-10  2976   0.503E-05    0.275E-05
DAV:  18    -0.138667286656E+04   -0.31141E-08    0.37947E-10  2880   0.301E-05
  76 F= -.14062594E+04 E0= -.14062594E+04  d E =-.150806E-03  mag=     0.0000
