       N       E                     dE             d eps       ncg     rms          rms(c)
DAV:   1    -0.137862164607E+04   -0.13786E+04   -0.13445E+00  6272   0.982E-01    0.955E-01
DAV:   2    -0.138037076245E+04   -0.17491E+01   -0.11980E+00  6080   0.951E-01    0.416E-01
DAV:   3    -0.138038049085E+04   -0.97284E-02   -0.43696E-02  6720   0.231E-01    0.280E-01
DAV:   4    -0.138038054080E+04   -0.49957E-04   -0.22628E-03  5536   0.587E-02    0.225E-01
DAV:   5    -0.138038055005E+04   -0.92444E-05   -0.19990E-04  6592   0.183E-02    0.190E-01
DAV:   6    -0.138038056262E+04   -0.12576E-04   -0.22238E-05  6656   0.711E-03    0.164E-01
DAV:   7    -0.138038057043E+04   -0.78021E-05   -0.24200E-05  6656   0.840E-03    0.130E-01
DAV:   8    -0.138038057548E+04   -0.50574E-05   -0.17170E-05  6208   0.649E-03    0.107E-01
DAV:   9    -0.138038057965E+04   -0.41641E-05   -0.41422E-06  4000   0.328E-03    0.930E-02
DAV:  10    -0.138038058525E+04   -0.56044E-05   -0.23904E-05  6432   0.793E-03    0.566E-02
DAV:  11    -0.138038058992E+04   -0.46705E-05   -0.29383E-05  6688   0.880E-03    0.213E-02
DAV:  12    -0.138038059118E+04   -0.12586E-05   -0.31181E-06  3712   0.265E-03    0.147E-02
DAV:  13    -0.138038059153E+04   -0.34699E-06   -0.14517E-06  3008   0.187E-03
   1 F= -.13998982E+04 E0= -.13998982E+04  d E =-.952363E-25  mag=    -0.0000
