       N       E                     dE             d eps       ncg     rms          rms(c)
DAV:   1    -0.137867749980E+04   -0.13787E+04   -0.13490E+00  6304   0.983E-01    0.951E-01
DAV:   2    -0.138043398229E+04   -0.17565E+01   -0.12019E+00  6048   0.956E-01    0.411E-01
DAV:   3    -0.138044385597E+04   -0.98737E-02   -0.43384E-02  6720   0.230E-01    0.277E-01
DAV:   4    -0.138044389569E+04   -0.39720E-04   -0.21798E-03  5536   0.578E-02    0.224E-01
DAV:   5    -0.138044390056E+04   -0.48662E-05   -0.20030E-04  6880   0.184E-02    0.188E-01
DAV:   6    -0.138044391322E+04   -0.12656E-04   -0.24292E-05  7040   0.736E-03    0.161E-01
DAV:   7    -0.138044391929E+04   -0.60747E-05   -0.23266E-05  6848   0.815E-03    0.130E-01
DAV:   8    -0.138044392448E+04   -0.51877E-05   -0.18229E-05  6880   0.674E-03    0.106E-01
DAV:   9    -0.138044392896E+04   -0.44871E-05   -0.58354E-06  7616   0.361E-03    0.897E-02
DAV:  10    -0.138044393297E+04   -0.40006E-05   -0.10211E-05  6560   0.543E-03    0.647E-02
DAV:  11    -0.138044393709E+04   -0.41204E-05   -0.43616E-05  6464   0.109E-02    0.191E-02
DAV:  12    -0.138044393843E+04   -0.13454E-05   -0.67562E-06  6976   0.335E-03    0.125E-02
DAV:  13    -0.138044393864E+04   -0.20796E-06   -0.89092E-07  7136   0.146E-03    0.641E-03
DAV:  14    -0.138044393863E+04    0.76398E-08   -0.48214E-07  7040   0.999E-04    0.325E-03
DAV:  15    -0.138044393857E+04    0.60827E-07   -0.69173E-08  4800   0.420E-04    0.148E-03
DAV:  16    -0.138044393853E+04    0.39698E-07   -0.18374E-08  3104   0.273E-04    0.518E-04
DAV:  17    -0.138044393853E+04   -0.88767E-09   -0.21911E-08  3104   0.190E-04
   1 F= -.13998986E+04 E0= -.13998986E+04  d E =-.139990E+04  mag=     0.0000
       N       E                     dE             d eps       ncg     rms          rms(c)
DAV:   1    -0.138044311302E+04    0.82551E-03   -0.58246E-01  5120   0.874E-01    0.125E-01
DAV:   2    -0.138044346239E+04   -0.34937E-03   -0.53453E-03  5472   0.802E-02    0.871E-02
DAV:   3    -0.138044339714E+04    0.65245E-04   -0.61564E-04  6144   0.389E-02    0.364E-02
DAV:   4    -0.138044340216E+04   -0.50205E-05   -0.12611E-04  6208   0.164E-02    0.166E-02
DAV:   5    -0.138044339845E+04    0.37195E-05   -0.35416E-05  6144   0.880E-03    0.768E-03
DAV:   6    -0.138044339793E+04    0.51003E-06   -0.49117E-06  5856   0.288E-03    0.410E-03
DAV:   7    -0.138044339783E+04    0.10402E-06   -0.26542E-06  6336   0.240E-03    0.175E-03
DAV:   8    -0.138044339788E+04   -0.52212E-07   -0.39046E-07  5904   0.112E-03    0.117E-03
DAV:   9    -0.138044339800E+04   -0.11204E-06   -0.15326E-07  5216   0.643E-04    0.509E-04
DAV:  10    -0.138044339814E+04   -0.14345E-06   -0.87334E-08  5088   0.535E-04    0.463E-04
DAV:  11    -0.138044339827E+04   -0.12665E-06   -0.42113E-08  4528   0.313E-04    0.278E-04
DAV:  12    -0.138044339838E+04   -0.11151E-06   -0.10935E-08  3232   0.187E-04    0.137E-04
DAV:  13    -0.138044339855E+04   -0.17814E-06   -0.22551E-08  3936   0.204E-04    0.181E-04
DAV:  14    -0.138044339864E+04   -0.88970E-07   -0.70888E-09  3168   0.131E-04    0.100E-04
DAV:  15    -0.138044339872E+04   -0.77867E-07   -0.64660E-09  3168   0.955E-05    0.613E-05
DAV:  16    -0.138044339878E+04   -0.59736E-07   -0.30867E-09  3072   0.573E-05    0.557E-05
DAV:  17    -0.138044339883E+04   -0.44645E-07   -0.26719E-09  3072   0.491E-05    0.306E-05
DAV:  18    -0.138044339885E+04   -0.28420E-07   -0.18760E-09  3072   0.466E-05    0.211E-05
DAV:  19    -0.138044339887E+04   -0.13562E-07   -0.79011E-10  2944   0.289E-05    0.190E-05
DAV:  20    -0.138044339888E+04   -0.95752E-08   -0.43990E-10  3072   0.251E-05
   2 F= -.13998981E+04 E0= -.13998981E+04  d E =0.584432E-03  mag=     0.0000
       N       E                     dE             d eps       ncg     rms          rms(c)
DAV:   1    -0.138044267938E+04    0.71948E-03   -0.11619E+00  5120   0.122E+00    0.139E-01
DAV:   2    -0.138044352985E+04   -0.85046E-03   -0.10997E-02  5536   0.109E-01    0.885E-02
DAV:   3    -0.138044343596E+04    0.93885E-04   -0.87986E-04  6272   0.370E-02    0.490E-02
DAV:   4    -0.138044341607E+04    0.19891E-04   -0.26998E-04  5504   0.243E-02    0.175E-02
DAV:   5    -0.138044341315E+04    0.29224E-05   -0.70308E-05  5440   0.120E-02    0.108E-02
DAV:   6    -0.138044341360E+04   -0.45054E-06   -0.15755E-05  6752   0.443E-03    0.669E-03
DAV:   7    -0.138044341316E+04    0.43726E-06   -0.31657E-06  6528   0.256E-03    0.376E-03
DAV:   8    -0.138044341333E+04   -0.17157E-06   -0.16261E-06  6240   0.179E-03    0.225E-03
DAV:   9    -0.138044341339E+04   -0.62209E-07   -0.50314E-07  6240   0.100E-03    0.913E-04
DAV:  10    -0.138044341360E+04   -0.20320E-06   -0.11098E-07  4800   0.459E-04    0.343E-04
DAV:  11    -0.138044341380E+04   -0.20221E-06   -0.31589E-08  4320   0.280E-04    0.332E-04
DAV:  12    -0.138044341399E+04   -0.19556E-06   -0.28294E-08  4128   0.277E-04    0.129E-04
DAV:  13    -0.138044341413E+04   -0.13212E-06   -0.11248E-08  3392   0.154E-04    0.144E-04
DAV:  14    -0.138044341424E+04   -0.11544E-06   -0.56184E-09  3136   0.975E-05    0.929E-05
DAV:  15    -0.138044341433E+04   -0.89902E-07   -0.74027E-09  3232   0.100E-04    0.562E-05
DAV:  16    -0.138044341439E+04   -0.53973E-07   -0.30454E-09  3072   0.558E-05    0.507E-05
DAV:  17    -0.138044341441E+04   -0.25611E-07   -0.16812E-09  3072   0.416E-05    0.271E-05
DAV:  18    -0.138044341443E+04   -0.21158E-07   -0.15320E-09  3072   0.438E-05    0.291E-05
DAV:  19    -0.138044341444E+04   -0.69122E-08   -0.62855E-10  2944   0.277E-05
   3 F= -.13998983E+04 E0= -.13998983E+04  d E =-.198062E-03  mag=     0.0000
       N       E                     dE             d eps       ncg     rms          rms(c)
DAV:   1    -0.138044299664E+04    0.41780E-03   -0.11546E+00  5120   0.123E+00    0.131E-01
DAV:   2    -0.138044360901E+04   -0.61238E-03   -0.10138E-02  5600   0.114E-01    0.919E-02
DAV:   3    -0.138044347436E+04    0.13465E-03   -0.10963E-03  6272   0.480E-02    0.452E-02
DAV:   4    -0.138044346870E+04    0.56684E-05   -0.20735E-04  5984   0.211E-02    0.202E-02
DAV:   5    -0.138044346502E+04    0.36782E-05   -0.55769E-05  5536   0.127E-02    0.873E-03
DAV:   6    -0.138044346473E+04    0.28797E-06   -0.68312E-06  5536   0.382E-03    0.489E-03
DAV:   7    -0.138044346495E+04   -0.21986E-06   -0.54031E-06  5920   0.358E-03    0.323E-03
DAV:   8    -0.138044346504E+04   -0.91284E-07   -0.10566E-06  6112   0.155E-03    0.178E-03
DAV:   9    -0.138044346547E+04   -0.42979E-06   -0.53952E-07  5920   0.118E-03    0.770E-04
DAV:  10    -0.138044346598E+04   -0.51277E-06   -0.15082E-07  5664   0.750E-04    0.676E-04
DAV:  11    -0.138044346644E+04   -0.45302E-06   -0.74268E-08  5184   0.525E-04    0.325E-04
DAV:  12    -0.138044346699E+04   -0.55043E-06   -0.46690E-08  4640   0.430E-04    0.207E-04
DAV:  13    -0.138044346729E+04   -0.30448E-06   -0.25255E-08  4320   0.244E-04    0.157E-04
DAV:  14    -0.138044346753E+04   -0.24015E-06   -0.71060E-09  3168   0.112E-04    0.915E-05
DAV:  15    -0.138044346776E+04   -0.22780E-06   -0.12353E-08  3648   0.972E-05    0.575E-05
DAV:  16    -0.138044346784E+04   -0.85420E-07   -0.27445E-09  3072   0.623E-05    0.355E-05
DAV:  17    -0.138044346794E+04   -0.90877E-07   -0.35219E-09  3168   0.498E-05    0.327E-05
DAV:  18    -0.138044346798E+04   -0.42128E-07   -0.16689E-09  3072   0.469E-05    0.206E-05
DAV:  19    -0.138044346800E+04   -0.27678E-07   -0.16100E-09  3072   0.487E-05    0.355E-05
DAV:  20    -0.138044346801E+04   -0.74069E-08   -0.75121E-10  3136   0.414E-05
   4 F= -.13998982E+04 E0= -.13998982E+04  d E =0.259849E-04  mag=     0.0000
       N       E                     dE             d eps       ncg     rms          rms(c)
DAV:   1    -0.138044226053E+04    0.12075E-02   -0.11647E+00  5120   0.120E+00    0.173E-01
DAV:   2    -0.138044315194E+04   -0.89140E-03   -0.12246E-02  5600   0.114E-01    0.118E-01
DAV:   3    -0.138044296594E+04    0.18599E-03   -0.11863E-03  6240   0.476E-02    0.595E-02
DAV:   4    -0.138044295267E+04    0.13276E-04   -0.30525E-04  6240   0.247E-02    0.221E-02
DAV:   5    -0.138044294927E+04    0.33948E-05   -0.53395E-05  5984   0.106E-02    0.118E-02
DAV:   6    -0.138044294725E+04    0.20214E-05   -0.76084E-06  5696   0.414E-03    0.576E-03
DAV:   7    -0.138044294653E+04    0.72185E-06   -0.41282E-06  6976   0.334E-03    0.224E-03
DAV:   8    -0.138044294643E+04    0.10451E-06   -0.89993E-07  6112   0.175E-03    0.129E-03
DAV:   9    -0.138044294656E+04   -0.13282E-06   -0.42952E-07  7008   0.152E-03    0.914E-04
DAV:  10    -0.138044294702E+04   -0.45953E-06   -0.32021E-07  5648   0.137E-03    0.584E-04
DAV:  11    -0.138044294763E+04   -0.61619E-06   -0.31408E-07  5728   0.950E-04    0.422E-04
DAV:  12    -0.138044294799E+04   -0.35271E-06   -0.63910E-08  4992   0.311E-04    0.353E-04
DAV:  13    -0.138044294830E+04   -0.31186E-06   -0.16458E-08  3872   0.166E-04    0.179E-04
DAV:  14    -0.138044294878E+04   -0.47899E-06   -0.27120E-08  4032   0.166E-04    0.114E-04
DAV:  15    -0.138044294899E+04   -0.20763E-06   -0.76832E-09  3296   0.113E-04    0.749E-05
DAV:  16    -0.138044294921E+04   -0.22170E-06   -0.85072E-09  3296   0.107E-04    0.500E-05
DAV:  17    -0.138044294936E+04   -0.15555E-06   -0.84261E-09  3200   0.127E-04    0.335E-05
DAV:  18    -0.138044294943E+04   -0.70519E-07   -0.65026E-09  3232   0.121E-04    0.297E-05
DAV:  19    -0.138044294946E+04   -0.31228E-07   -0.30932E-09  3072   0.763E-05    0.205E-05
DAV:  20    -0.138044294948E+04   -0.15352E-07   -0.14610E-09  3072   0.410E-05    0.109E-05
DAV:  21    -0.138044294949E+04   -0.59517E-08   -0.49982E-10  2944   0.262E-05
   5 F= -.13998976E+04 E0= -.13998976E+04  d E =0.624038E-03  mag=     0.0000
       N       E                     dE             d eps       ncg     rms          rms(c)
DAV:   1    -0.138044231197E+04    0.63751E-03   -0.11797E+00  5120   0.105E+00    0.103E-01
DAV:   2    -0.138044258595E+04   -0.27398E-03   -0.56966E-03  5472   0.755E-02    0.623E-02
DAV:   3    -0.138044249328E+04    0.92663E-04   -0.56860E-04  6080   0.253E-02    0.199E-02
DAV:   4    -0.138044249568E+04   -0.23957E-05   -0.86972E-05  6048   0.891E-03    0.134E-02
DAV:   5    -0.138044249447E+04    0.12102E-05   -0.66137E-06  6112   0.296E-03    0.623E-03
DAV:   6    -0.138044249432E+04    0.15224E-06   -0.17209E-06  6720   0.212E-03    0.179E-03
DAV:   7    -0.138044249444E+04   -0.12697E-06   -0.35608E-07  6336   0.818E-04    0.103E-03
DAV:   8    -0.138044249471E+04   -0.26892E-06   -0.91898E-08  5472   0.408E-04    0.718E-04
DAV:   9    -0.138044249511E+04   -0.40120E-06   -0.56894E-08  4512   0.386E-04    0.292E-04
DAV:  10    -0.138044249538E+04   -0.26521E-06   -0.49171E-08  4672   0.313E-04    0.199E-04
DAV:  11    -0.138044249558E+04   -0.20125E-06   -0.96545E-09  3488   0.125E-04    0.138E-04
DAV:  12    -0.138044249583E+04   -0.25086E-06   -0.14877E-08  3680   0.108E-04    0.794E-05
DAV:  13    -0.138044249594E+04   -0.10825E-06   -0.54799E-09  3232   0.767E-05    0.541E-05
DAV:  14    -0.138044249601E+04   -0.68598E-07   -0.27375E-09  3072   0.556E-05    0.351E-05
DAV:  15    -0.138044249606E+04   -0.53173E-07   -0.23489E-09  3072   0.533E-05    0.263E-05
DAV:  16    -0.138044249610E+04   -0.38359E-07   -0.22090E-09  3072   0.560E-05    0.215E-05
DAV:  17    -0.138044249611E+04   -0.14348E-07   -0.12906E-09  3040   0.477E-05    0.156E-05
DAV:  18    -0.138044249612E+04   -0.10230E-07   -0.65546E-10  2944   0.317E-05    0.893E-06
DAV:  19    -0.138044249613E+04   -0.40309E-08   -0.30594E-10  3008   0.199E-05
   6 F= -.13998971E+04 E0= -.13998971E+04  d E =0.509400E-03  mag=     0.0000
       N       E                     dE             d eps       ncg     rms          rms(c)
DAV:   1    -0.138044208068E+04    0.41544E-03   -0.11824E+00  5120   0.106E+00    0.140E-01
DAV:   2    -0.138044243668E+04   -0.35600E-03   -0.69297E-03  5536   0.846E-02    0.905E-02
DAV:   3    -0.138044234092E+04    0.95769E-04   -0.91633E-04  6368   0.405E-02    0.287E-02
DAV:   4    -0.138044234936E+04   -0.84422E-05   -0.14896E-04  5856   0.139E-02    0.191E-02
DAV:   5    -0.138044234599E+04    0.33661E-05   -0.22900E-05  6336   0.627E-03    0.905E-03
DAV:   6    -0.138044234456E+04    0.14344E-05   -0.47534E-06  6656   0.367E-03    0.338E-03
DAV:   7    -0.138044234465E+04   -0.92798E-07   -0.14626E-06  6368   0.193E-03    0.144E-03
DAV:   8    -0.138044234508E+04   -0.43186E-06   -0.34894E-07  6432   0.107E-03    0.103E-03
DAV:   9    -0.138044234582E+04   -0.74231E-06   -0.13573E-07  5568   0.940E-04    0.492E-04
DAV:  10    -0.138044234666E+04   -0.83343E-06   -0.17632E-07  5344   0.909E-04    0.340E-04
DAV:  11    -0.138044234751E+04   -0.85103E-06   -0.16020E-07  5408   0.573E-04    0.339E-04
DAV:  12    -0.138044234797E+04   -0.46538E-06   -0.36248E-08  4512   0.255E-04    0.189E-04
DAV:  13    -0.138044234838E+04   -0.40857E-06   -0.14800E-08  3776   0.141E-04    0.104E-04
DAV:  14    -0.138044234873E+04   -0.34551E-06   -0.14179E-08  3968   0.979E-05    0.675E-05
DAV:  15    -0.138044234895E+04   -0.21976E-06   -0.60453E-09  3296   0.652E-05    0.463E-05
DAV:  16    -0.138044234913E+04   -0.18268E-06   -0.88626E-09  3584   0.799E-05    0.396E-05
DAV:  17    -0.138044234918E+04   -0.45926E-07   -0.17088E-09  3136   0.513E-05    0.412E-05
DAV:  18    -0.138044234921E+04   -0.31330E-07   -0.10145E-09  3072   0.389E-05    0.229E-05
DAV:  19    -0.138044234923E+04   -0.26208E-07   -0.10606E-09  3072   0.426E-05    0.133E-05
DAV:  20    -0.138044234924E+04   -0.80763E-08   -0.37509E-10  2944   0.272E-05
   7 F= -.13998971E+04 E0= -.13998971E+04  d E =0.742690E-05  mag=    -0.0000
       N       E                     dE             d eps       ncg     rms          rms(c)
DAV:   1    -0.138044292032E+04   -0.57108E-03   -0.11632E+00  5120   0.113E+00    0.193E-01
DAV:   2    -0.138044376398E+04   -0.84366E-03   -0.12261E-02  5600   0.106E-01    0.133E-01
DAV:   3    -0.138044356812E+04    0.19586E-03   -0.13759E-03  6112   0.510E-02    0.658E-02
DAV:   4    -0.138044356256E+04    0.55567E-05   -0.31288E-04  6368   0.228E-02    0.234E-02
DAV:   5    -0.138044355824E+04    0.43279E-05   -0.39520E-05  5824   0.979E-03    0.113E-02
DAV:   6    -0.138044355651E+04    0.17272E-05   -0.81909E-06  5952   0.426E-03    0.461E-03
DAV:   7    -0.138044355643E+04    0.82335E-07   -0.32009E-06  6784   0.279E-03    0.212E-03
DAV:   8    -0.138044355693E+04   -0.50516E-06   -0.54193E-07  6176   0.132E-03    0.131E-03
DAV:   9    -0.138044355772E+04   -0.78845E-06   -0.38349E-07  6272   0.136E-03    0.831E-04
DAV:  10    -0.138044355882E+04   -0.10955E-05   -0.29137E-07  5776   0.105E-03    0.527E-04
DAV:  11    -0.138044356001E+04   -0.11932E-05   -0.16751E-07  5440   0.775E-04    0.307E-04
DAV:  12    -0.138044356088E+04   -0.87509E-06   -0.88543E-08  4912   0.470E-04    0.230E-04
DAV:  13    -0.138044356150E+04   -0.61966E-06   -0.23113E-08  4000   0.178E-04    0.150E-04
DAV:  14    -0.138044356208E+04   -0.57473E-06   -0.20714E-08  3936   0.124E-04    0.858E-05
DAV:  15    -0.138044356236E+04   -0.28641E-06   -0.71785E-09  3136   0.734E-05    0.588E-05
DAV:  16    -0.138044356264E+04   -0.27021E-06   -0.10530E-08  3392   0.722E-05    0.370E-05
DAV:  17    -0.138044356273E+04   -0.99724E-07   -0.28833E-09  3136   0.540E-05    0.248E-05
DAV:  18    -0.138044356281E+04   -0.75961E-07   -0.32705E-09  3072   0.532E-05    0.181E-05
DAV:  19    -0.138044356283E+04   -0.20649E-07   -0.12423E-09  3136   0.419E-05    0.156E-05
DAV:  20    -0.138044356285E+04   -0.14261E-07   -0.73675E-10  3072   0.293E-05    0.837E-06
DAV:  21    -0.138044356285E+04   -0.57189E-08   -0.30452E-10  3072   0.224E-05
   8 F= -.13998982E+04 E0= -.13998982E+04  d E =-.113658E-02  mag=     0.0000
       N       E                     dE             d eps       ncg     rms          rms(c)
DAV:   1    -0.138044236592E+04    0.11969E-02   -0.11718E+00  5120   0.109E+00    0.315E-01
DAV:   2    -0.138044310251E+04   -0.73659E-03   -0.11890E-02  5632   0.111E-01    0.254E-01
DAV:   3    -0.138044294151E+04    0.16099E-03   -0.35248E-03  5760   0.927E-02    0.697E-02
DAV:   4    -0.138044290253E+04    0.38983E-04   -0.84438E-04  5824   0.354E-02    0.411E-02
DAV:   5    -0.138044287461E+04    0.27920E-04   -0.16708E-04  6048   0.203E-02    0.177E-02
DAV:   6    -0.138044287210E+04    0.25095E-05   -0.41274E-05  5952   0.834E-03    0.680E-03
DAV:   7    -0.138044287195E+04    0.15553E-06   -0.56527E-06  7072   0.327E-03    0.331E-03
DAV:   8    -0.138044287299E+04   -0.10432E-05   -0.10386E-06  6464   0.155E-03    0.182E-03
DAV:   9    -0.138044287471E+04   -0.17245E-05   -0.62183E-07  5792   0.147E-03    0.110E-03
DAV:  10    -0.138044287666E+04   -0.19432E-05   -0.34982E-07  5792   0.100E-03    0.702E-04
DAV:  11    -0.138044287893E+04   -0.22730E-05   -0.21628E-07  5088   0.792E-04    0.485E-04
DAV:  12    -0.138044288090E+04   -0.19714E-05   -0.14545E-07  5120   0.593E-04    0.343E-04
DAV:  13    -0.138044288204E+04   -0.11374E-05   -0.77808E-08  4608   0.307E-04    0.246E-04
DAV:  14    -0.138044288276E+04   -0.71729E-06   -0.20900E-08  4000   0.139E-04    0.159E-04
DAV:  15    -0.138044288330E+04   -0.54270E-06   -0.16283E-08  3904   0.107E-04    0.854E-05
DAV:  16    -0.138044288377E+04   -0.47045E-06   -0.14757E-08  3776   0.851E-05    0.614E-05
DAV:  17    -0.138044288399E+04   -0.21685E-06   -0.52438E-09  3072   0.652E-05    0.402E-05
DAV:  18    -0.138044288410E+04   -0.11400E-06   -0.39006E-09  3072   0.637E-05    0.385E-05
DAV:  19    -0.138044288414E+04   -0.42171E-07   -0.18221E-09  3072   0.516E-05    0.322E-05
DAV:  20    -0.138044288417E+04   -0.22192E-07   -0.10139E-09  3072   0.403E-05    0.151E-05
DAV:  21    -0.138044288418E+04   -0.12369E-07   -0.53621E-10  3072   0.329E-05    0.180E-05
DAV:  22    -0.138044288418E+04   -0.21246E-08   -0.47800E-11  2944   0.174E-05
   9 F= -.13998977E+04 E0= -.13998977E+04  d E =0.521149E-03  mag=     0.0000
       N       E                     dE             d eps       ncg     rms          rms(c)
DAV:   1    -0.138044251105E+04    0.37313E-03   -0.11512E+00  5120   0.108E+00    0.216E-01
DAV:   2    -0.138044358719E+04   -0.10761E-02   -0.13160E-02  5792   0.943E-02    0.159E-01
DAV:   3    -0.138044340953E+04    0.17766E-03   -0.13663E-03  6464   0.440E-02    0.838E-02
DAV:   4    -0.138044338524E+04    0.24291E-04   -0.35953E-04  5536   0.214E-02    0.310E-02
DAV:   5    -0.138044337624E+04    0.89931E-05   -0.16029E-04  5536   0.179E-02    0.123E-02
DAV:   6    -0.138044337817E+04   -0.19300E-05   -0.22840E-05  5504   0.562E-03    0.559E-03
DAV:   7    -0.138044338264E+04   -0.44674E-05   -0.50298E-06  6048   0.321E-03    0.303E-03
DAV:   8    -0.138044338618E+04   -0.35367E-05   -0.10255E-06  5920   0.129E-03    0.176E-03
DAV:   9    -0.138044339186E+04   -0.56820E-05   -0.10222E-06  5152   0.149E-03    0.133E-03
DAV:  10    -0.138044339714E+04   -0.52787E-05   -0.49723E-07  5280   0.758E-04    0.114E-03
DAV:  11    -0.138044340108E+04   -0.39382E-05   -0.59321E-07  5280   0.840E-04    0.580E-04
DAV:  12    -0.138044340416E+04   -0.30869E-05   -0.20437E-07  4864   0.460E-04    0.477E-04
DAV:  13    -0.138044340580E+04   -0.16394E-05   -0.90148E-08  4832   0.275E-04    0.237E-04
DAV:  14    -0.138044340734E+04   -0.15320E-05   -0.78545E-08  4480   0.200E-04    0.124E-04
DAV:  15    -0.138044340795E+04   -0.61720E-06   -0.18638E-08  3840   0.112E-04    0.954E-05
DAV:  16    -0.138044340845E+04   -0.50159E-06   -0.15903E-08  3776   0.927E-05    0.506E-05
DAV:  17    -0.138044340871E+04   -0.25774E-06   -0.67595E-09  3264   0.727E-05    0.470E-05
DAV:  18    -0.138044340882E+04   -0.10901E-06   -0.29786E-09  3072   0.651E-05    0.420E-05
DAV:  19    -0.138044340888E+04   -0.55326E-07   -0.20115E-09  3072   0.594E-05    0.280E-05
DAV:  20    -0.138044340891E+04   -0.31345E-07   -0.11213E-09  3072   0.445E-05    0.177E-05
DAV:  21    -0.138044340893E+04   -0.24083E-07   -0.71491E-10  3072   0.322E-05    0.280E-05
DAV:  22    -0.138044340894E+04   -0.66939E-08   -0.18370E-10  3072   0.195E-05
  10 F= -.13998980E+04 E0= -.13998980E+04  d E =-.279177E-03  mag=    -0.0000
       N       E                     dE             d eps       ncg     rms          rms(c)
DAV:   1    -0.138044290995E+04    0.49898E-03   -0.60968E-01  5120   0.791E-01    0.144E-01
DAV:   2    -0.138044346143E+04   -0.55147E-03   -0.77096E-03  5856   0.801E-02    0.982E-02
DAV:   3    -0.138044335843E+04    0.10300E-03   -0.81943E-04  6144   0.406E-02    0.574E-02
DAV:   4    -0.138044334735E+04    0.11077E-04   -0.21226E-04  5632   0.197E-02    0.212E-02
DAV:   5    -0.138044334319E+04    0.41654E-05   -0.48286E-05  5504   0.112E-02    0.943E-03
DAV:   6    -0.138044334289E+04    0.29425E-06   -0.11039E-05  6208   0.500E-03    0.449E-03
DAV:   7    -0.138044334355E+04   -0.65968E-06   -0.27767E-06  6704   0.258E-03    0.225E-03
DAV:   8    -0.138044334452E+04   -0.97029E-06   -0.36396E-07  6080   0.114E-03    0.132E-03
DAV:   9    -0.138044334633E+04   -0.18105E-05   -0.37214E-07  5088   0.130E-03    0.747E-04
DAV:  10    -0.138044334798E+04   -0.16440E-05   -0.26142E-07  5472   0.856E-04    0.734E-04
DAV:  11    -0.138044334966E+04   -0.16859E-05   -0.15159E-07  5056   0.563E-04    0.328E-04
DAV:  12    -0.138044335116E+04   -0.14977E-05   -0.10960E-07  4640   0.487E-04    0.319E-04
DAV:  13    -0.138044335188E+04   -0.72202E-06   -0.45749E-08  4480   0.253E-04    0.232E-04
DAV:  14    -0.138044335244E+04   -0.56118E-06   -0.15653E-08  3616   0.141E-04    0.119E-04
DAV:  15    -0.138044335309E+04   -0.64589E-06   -0.22516E-08  4080   0.105E-04    0.115E-04
DAV:  16    -0.138044335336E+04   -0.26902E-06   -0.53940E-09  3232   0.731E-05    0.569E-05
DAV:  17    -0.138044335357E+04   -0.20840E-06   -0.54995E-09  3200   0.670E-05    0.395E-05
DAV:  18    -0.138044335366E+04   -0.91124E-07   -0.21431E-09  3072   0.490E-05    0.250E-05
DAV:  19    -0.138044335371E+04   -0.47861E-07   -0.18658E-09  3072   0.468E-05    0.176E-05
DAV:  20    -0.138044335372E+04   -0.11263E-07   -0.72234E-10  3136   0.401E-05    0.158E-05
DAV:  21    -0.138044335373E+04   -0.95752E-08   -0.31499E-10  3072   0.254E-05
  11 F= -.13998981E+04 E0= -.13998981E+04  d E =-.619097E-04  mag=     0.0000
       N       E                     dE             d eps       ncg     rms          rms(c)
DAV:   1    -0.138044275908E+04    0.59464E-03   -0.60783E-02  5152   0.125E-01    0.737E-02
DAV:   2    -0.138044281832E+04   -0.59236E-04   -0.40743E-04  5472   0.156E-02    0.434E-02
DAV:   3    -0.138044284847E+04   -0.30155E-04   -0.51633E-05  5888   0.712E-03    0.104E-02
DAV:   4    -0.138044284943E+04   -0.95606E-06   -0.12517E-05  6528   0.405E-03    0.321E-03
DAV:   5    -0.138044284986E+04   -0.43052E-06   -0.78116E-07  5536   0.102E-03    0.189E-03
DAV:   6    -0.138044285087E+04   -0.10144E-05   -0.93021E-07  5568   0.107E-03    0.131E-03
DAV:   7    -0.138044285139E+04   -0.51859E-06   -0.23645E-07  5600   0.609E-04    0.410E-04
DAV:   8    -0.138044285193E+04   -0.53832E-06   -0.42319E-08  4352   0.228E-04    0.248E-04
DAV:   9    -0.138044285252E+04   -0.58493E-06   -0.39246E-08  4320   0.197E-04    0.162E-04
DAV:  10    -0.138044285288E+04   -0.36822E-06   -0.21633E-08  4080   0.138E-04    0.969E-05
DAV:  11    -0.138044285306E+04   -0.18117E-06   -0.57517E-09  3280   0.769E-05    0.719E-05
DAV:  12    -0.138044285329E+04   -0.22232E-06   -0.12474E-08  3888   0.908E-05    0.601E-05
DAV:  13    -0.138044285335E+04   -0.66109E-07   -0.24803E-09  3072   0.690E-05    0.424E-05
DAV:  14    -0.138044285342E+04   -0.69325E-07   -0.42477E-09  3200   0.804E-05    0.324E-05
DAV:  15    -0.138044285345E+04   -0.28056E-07   -0.21485E-09  3008   0.747E-05    0.332E-05
DAV:  16    -0.138044285347E+04   -0.20489E-07   -0.95922E-10  3008   0.406E-05    0.184E-05
DAV:  17    -0.138044285349E+04   -0.14858E-07   -0.62653E-10  2960   0.334E-05    0.184E-05
DAV:  18    -0.138044285349E+04   -0.66066E-08   -0.22067E-10  2992   0.215E-05
  12 F= -.13998977E+04 E0= -.13998977E+04  d E =0.346937E-03  mag=    -0.0000
       N       E                     dE             d eps       ncg     rms          rms(c)
DAV:   1    -0.138044285655E+04   -0.30619E-05   -0.60579E-02  5120   0.124E-01    0.691E-02
DAV:   2    -0.138044291603E+04   -0.59484E-04   -0.35195E-04  5632   0.154E-02    0.422E-02
DAV:   3    -0.138044294998E+04   -0.33952E-04   -0.34397E-05  6112   0.693E-03    0.652E-03
DAV:   4    -0.138044295093E+04   -0.94521E-06   -0.34817E-06  6496   0.230E-03    0.266E-03
DAV:   5    -0.138044295144E+04   -0.51192E-06   -0.57898E-07  5952   0.115E-03    0.133E-03
DAV:   6    -0.138044295186E+04   -0.42083E-06   -0.16017E-07  6112   0.676E-04    0.718E-04
DAV:   7    -0.138044295243E+04   -0.57198E-06   -0.87326E-08  4768   0.490E-04    0.387E-04
DAV:   8    -0.138044295294E+04   -0.50273E-06   -0.52250E-08  4544   0.342E-04    0.250E-04
DAV:   9    -0.138044295344E+04   -0.50492E-06   -0.29642E-08  4192   0.238E-04    0.161E-04
DAV:  10    -0.138044295386E+04   -0.41512E-06   -0.24288E-08  4064   0.186E-04    0.100E-04
DAV:  11    -0.138044295420E+04   -0.34814E-06   -0.20547E-08  3936   0.146E-04    0.709E-05
DAV:  12    -0.138044295433E+04   -0.12234E-06   -0.46577E-09  3184   0.804E-05    0.530E-05
DAV:  13    -0.138044295444E+04   -0.11183E-06   -0.46161E-09  3184   0.755E-05    0.307E-05
DAV:  14    -0.138044295449E+04   -0.51572E-07   -0.26573E-09  3072   0.684E-05    0.333E-05
DAV:  15    -0.138044295451E+04   -0.19543E-07   -0.12694E-09  3072   0.536E-05    0.236E-05
DAV:  16    -0.138044295453E+04   -0.22992E-07   -0.12856E-09  3072   0.522E-05    0.170E-05
DAV:  17    -0.138044295454E+04   -0.89349E-08   -0.52975E-10  3072   0.333E-05
  13 F= -.13998975E+04 E0= -.13998975E+04  d E =0.156709E-03  mag=    -0.0000
       N       E                     dE             d eps       ncg     rms          rms(c)
DAV:   1    -0.138044359553E+04   -0.64099E-03   -0.70659E-02  5248   0.183E-01    0.100E-01
DAV:   2    -0.138044357049E+04    0.25035E-04   -0.10219E-03  5888   0.300E-02    0.542E-02
DAV:   3    -0.138044357401E+04   -0.35179E-05   -0.16487E-04  5760   0.130E-02    0.232E-02
DAV:   4    -0.138044357536E+04   -0.13539E-05   -0.94429E-05  6016   0.111E-02    0.133E-02
DAV:   5    -0.138044357314E+04    0.22262E-05   -0.23872E-05  6432   0.556E-03    0.227E-03
DAV:   6    -0.138044357394E+04   -0.80008E-06   -0.19822E-06  5472   0.148E-03    0.235E-03
DAV:   7    -0.138044357439E+04   -0.45702E-06   -0.47768E-07  5920   0.834E-04    0.797E-04
DAV:   8    -0.138044357490E+04   -0.50623E-06   -0.17844E-07  4544   0.463E-04    0.476E-04
DAV:   9    -0.138044357530E+04   -0.39433E-06   -0.35294E-08  4608   0.239E-04    0.227E-04
DAV:  10    -0.138044357570E+04   -0.40366E-06   -0.27225E-08  4224   0.192E-04    0.159E-04
DAV:  11    -0.138044357603E+04   -0.33506E-06   -0.23429E-08  4096   0.153E-04    0.105E-04
DAV:  12    -0.138044357621E+04   -0.18071E-06   -0.12234E-08  3760   0.106E-04    0.559E-05
DAV:  13    -0.138044357630E+04   -0.83339E-07   -0.28697E-09  3136   0.531E-05    0.400E-05
DAV:  14    -0.138044357639E+04   -0.87181E-07   -0.47313E-09  3200   0.547E-05    0.269E-05
DAV:  15    -0.138044357641E+04   -0.20867E-07   -0.14376E-09  3072   0.488E-05    0.186E-05
DAV:  16    -0.138044357643E+04   -0.25844E-07   -0.12311E-09  3072   0.433E-05    0.147E-05
DAV:  17    -0.138044357645E+04   -0.17972E-07   -0.81938E-10  3072   0.349E-05    0.179E-05
DAV:  18    -0.138044357645E+04   -0.42928E-08   -0.19091E-10  2944   0.205E-05
  14 F= -.13998983E+04 E0= -.13998983E+04  d E =-.766381E-03  mag=     0.0000
       N       E                     dE             d eps       ncg     rms          rms(c)
DAV:   1    -0.138044341261E+04    0.16384E-03   -0.77551E-02  4864   0.181E-01    0.104E-01
DAV:   2    -0.138044334679E+04    0.65820E-04   -0.81331E-04  5312   0.200E-02    0.595E-02
DAV:   3    -0.138044332867E+04    0.18122E-04   -0.36490E-04  5408   0.130E-02    0.181E-02
DAV:   4    -0.138044332245E+04    0.62216E-05   -0.43112E-05  5088   0.442E-03    0.111E-02
DAV:   5    -0.138044332158E+04    0.86741E-06   -0.12805E-05  5024   0.254E-03    0.223E-03
DAV:   6    -0.138044332157E+04    0.17200E-07   -0.95413E-07  4928   0.832E-04    0.104E-03
DAV:   7    -0.138044332155E+04    0.10972E-07   -0.12873E-07  4672   0.291E-04    0.648E-04
DAV:   8    -0.138044332163E+04   -0.71217E-07   -0.33626E-08  4128   0.233E-04    0.221E-04
DAV:   9    -0.138044332170E+04   -0.72265E-07   -0.15044E-08  3712   0.152E-04    0.165E-04
DAV:  10    -0.138044332181E+04   -0.10864E-06   -0.62807E-09  3232   0.102E-04    0.949E-05
DAV:  11    -0.138044332190E+04   -0.90920E-07   -0.51121E-09  3296   0.896E-05    0.651E-05
DAV:  12    -0.138044332201E+04   -0.10995E-06   -0.87870E-09  3648   0.110E-04    0.531E-05
DAV:  13    -0.138044332206E+04   -0.51310E-07   -0.32665E-09  3072   0.820E-05    0.395E-05
DAV:  14    -0.138044332210E+04   -0.43132E-07   -0.30208E-09  3104   0.717E-05    0.308E-05
DAV:  15    -0.138044332213E+04   -0.30181E-07   -0.22487E-09  3072   0.592E-05    0.294E-05
DAV:  16    -0.138044332215E+04   -0.14363E-07   -0.10219E-09  2944   0.389E-05    0.177E-05
DAV:  17    -0.138044332216E+04   -0.16633E-07   -0.96388E-10  3072   0.374E-05    0.337E-05
DAV:  18    -0.138044332217E+04   -0.72760E-08   -0.30929E-10  2928   0.249E-05
  15 F= -.13998980E+04 E0= -.13998980E+04  d E =0.323354E-03  mag=     0.0000
       N       E                     dE             d eps       ncg     rms          rms(c)
DAV:   1    -0.138044316612E+04    0.15604E-03   -0.73457E-02  4992   0.174E-01    0.800E-02
DAV:   2    -0.138044318792E+04   -0.21804E-04   -0.52700E-04  5216   0.140E-02    0.480E-02
DAV:   3    -0.138044318353E+04    0.43915E-05   -0.76001E-05  5280   0.594E-03    0.553E-03
DAV:   4    -0.138044318369E+04   -0.16071E-06   -0.85507E-06  4864   0.175E-03    0.350E-03
DAV:   5    -0.138044318353E+04    0.16092E-06   -0.23382E-06  4736   0.106E-03    0.117E-03
DAV:   6    -0.138044318363E+04   -0.92827E-07   -0.33842E-07  4320   0.425E-04    0.602E-04
DAV:   7    -0.138044318376E+04   -0.13341E-06   -0.68191E-08  4192   0.215E-04    0.197E-04
DAV:   8    -0.138044318386E+04   -0.10623E-06   -0.10741E-08  3360   0.837E-05    0.150E-04
DAV:   9    -0.138044318406E+04   -0.19080E-06   -0.12884E-08  3840   0.870E-05    0.833E-05
DAV:  10    -0.138044318416E+04   -0.10488E-06   -0.38219E-09  3200   0.574E-05    0.484E-05
DAV:  11    -0.138044318425E+04   -0.88010E-07   -0.34763E-09  3168   0.541E-05    0.417E-05
DAV:  12    -0.138044318431E+04   -0.56752E-07   -0.21966E-09  3072   0.516E-05    0.313E-05
DAV:  13    -0.138044318436E+04   -0.53478E-07   -0.27085E-09  3072   0.503E-05    0.156E-05
DAV:  14    -0.138044318439E+04   -0.26310E-07   -0.14969E-09  3072   0.419E-05    0.173E-05
DAV:  15    -0.138044318440E+04   -0.10201E-07   -0.66575E-10  3072   0.263E-05    0.109E-05
DAV:  16    -0.138044318441E+04   -0.12238E-07   -0.44450E-10  3072   0.236E-05    0.918E-06
DAV:  17    -0.138044318441E+04   -0.32160E-08   -0.11983E-10  2912   0.159E-05
  16 F= -.13998976E+04 E0= -.13998976E+04  d E =0.415596E-03  mag=     0.0000
       N       E                     dE             d eps       ncg     rms          rms(c)
DAV:   1    -0.138044371681E+04   -0.53240E-03   -0.77237E-02  5088   0.206E-01    0.103E-01
DAV:   2    -0.138044367440E+04    0.42410E-04   -0.10431E-03  5312   0.233E-02    0.621E-02
DAV:   3    -0.138044365027E+04    0.24127E-04   -0.56477E-04  5312   0.171E-02    0.221E-02
DAV:   4    -0.138044364075E+04    0.95208E-05   -0.70931E-05  5120   0.574E-03    0.149E-02
DAV:   5    -0.138044363808E+04    0.26765E-05   -0.22050E-05  4768   0.320E-03    0.383E-03
DAV:   6    -0.138044363792E+04    0.15402E-06   -0.26067E-06  5248   0.114E-03    0.118E-03
DAV:   7    -0.138044363803E+04   -0.10501E-06   -0.25634E-07  4656   0.404E-04    0.858E-04
DAV:   8    -0.138044363820E+04   -0.16682E-06   -0.50767E-08  4320   0.265E-04    0.368E-04
DAV:   9    -0.138044363835E+04   -0.15771E-06   -0.29009E-08  4096   0.200E-04    0.183E-04
DAV:  10    -0.138044363853E+04   -0.17683E-06   -0.11400E-08  3712   0.129E-04    0.143E-04
DAV:  11    -0.138044363866E+04   -0.13385E-06   -0.45265E-09  3200   0.907E-05    0.811E-05
DAV:  12    -0.138044363884E+04   -0.18025E-06   -0.11575E-08  3744   0.113E-04    0.687E-05
DAV:  13    -0.138044363891E+04   -0.66051E-07   -0.33084E-09  3136   0.717E-05    0.410E-05
DAV:  14    -0.138044363897E+04   -0.56694E-07   -0.26133E-09  3072   0.589E-05    0.407E-05
DAV:  15    -0.138044363899E+04   -0.28143E-07   -0.16797E-09  3072   0.463E-05    0.365E-05
DAV:  16    -0.138044363901E+04   -0.14421E-07   -0.11135E-09  3072   0.444E-05    0.162E-05
DAV:  17    -0.138044363902E+04   -0.11685E-07   -0.77275E-10  3040   0.349E-05    0.264E-05
DAV:  18    -0.138044363902E+04   -0.24011E-08   -0.17765E-10  2752   0.208E-05
  17 F= -.13998984E+04 E0= -.13998984E+04  d E =-.803286E-03  mag=    -0.0000
       N       E                     dE             d eps       ncg     rms          rms(c)
DAV:   1    -0.138044329750E+04    0.34152E-03   -0.73523E-02  4896   0.200E-01    0.828E-02
DAV:   2    -0.138044330572E+04   -0.82232E-05   -0.55971E-04  5024   0.170E-02    0.492E-02
DAV:   3    -0.138044329976E+04    0.59648E-05   -0.13138E-04  5216   0.810E-03    0.961E-03
DAV:   4    -0.138044329851E+04    0.12482E-05   -0.15475E-05  4672   0.271E-03    0.561E-03
DAV:   5    -0.138044329829E+04    0.21685E-06   -0.57464E-06  4656   0.169E-03    0.142E-03
DAV:   6    -0.138044329831E+04   -0.14130E-07   -0.57065E-07  4480   0.581E-04    0.770E-04
DAV:   7    -0.138044329836E+04   -0.54933E-07   -0.67570E-08  4128   0.225E-04    0.260E-04
DAV:   8    -0.138044329842E+04   -0.59663E-07   -0.16612E-08  3808   0.102E-04    0.147E-04
DAV:   9    -0.138044329849E+04   -0.65862E-07   -0.36905E-09  3136   0.695E-05    0.747E-05
DAV:  10    -0.138044329856E+04   -0.69529E-07   -0.41224E-09  3232   0.624E-05    0.465E-05
DAV:  11    -0.138044329860E+04   -0.41386E-07   -0.18847E-09  3072   0.497E-05    0.347E-05
DAV:  12    -0.138044329865E+04   -0.53871E-07   -0.30469E-09  3072   0.587E-05    0.209E-05
DAV:  13    -0.138044329867E+04   -0.18103E-07   -0.15418E-09  3072   0.507E-05    0.169E-05
DAV:  14    -0.138044329869E+04   -0.21915E-07   -0.11586E-09  3008   0.331E-05    0.113E-05
DAV:  15    -0.138044329870E+04   -0.10958E-07   -0.70909E-10  3008   0.253E-05    0.113E-05
DAV:  16    -0.138044329871E+04   -0.30996E-08   -0.18815E-10  2752   0.166E-05
  18 F= -.13998980E+04 E0= -.13998980E+04  d E =0.362846E-03  mag=     0.0000
       N       E                     dE             d eps       ncg     rms          rms(c)
DAV:   1    -0.138044349857E+04   -0.19987E-03   -0.86556E-02  4992   0.212E-01    0.143E-01
DAV:   2    -0.138044329567E+04    0.20290E-03   -0.18281E-03  5312   0.334E-02    0.811E-02
DAV:   3    -0.138044323473E+04    0.60935E-04   -0.98300E-04  5280   0.215E-02    0.293E-02
DAV:   4    -0.138044321883E+04    0.15908E-04   -0.10819E-04  5024   0.712E-03    0.183E-02
DAV:   5    -0.138044321692E+04    0.19055E-05   -0.24725E-05  5472   0.361E-03    0.440E-03
DAV:   6    -0.138044321659E+04    0.32758E-06   -0.29861E-06  4832   0.135E-03    0.131E-03
DAV:   7    -0.138044321657E+04    0.18277E-07   -0.41808E-07  5248   0.477E-04    0.904E-04
DAV:   8    -0.138044321661E+04   -0.34590E-07   -0.50589E-08  4256   0.281E-04    0.405E-04
DAV:   9    -0.138044321665E+04   -0.43248E-07   -0.28161E-08  4128   0.219E-04    0.187E-04
DAV:  10    -0.138044321674E+04   -0.83382E-07   -0.11396E-08  3808   0.145E-04    0.138E-04
DAV:  11    -0.138044321681E+04   -0.70082E-07   -0.40423E-09  3136   0.108E-04    0.828E-05
DAV:  12    -0.138044321691E+04   -0.10150E-06   -0.10346E-08  3552   0.128E-04    0.753E-05
DAV:  13    -0.138044321695E+04   -0.42899E-07   -0.39345E-09  3136   0.903E-05    0.522E-05
DAV:  14    -0.138044321699E+04   -0.40513E-07   -0.36830E-09  3072   0.792E-05    0.474E-05
DAV:  15    -0.138044321702E+04   -0.26150E-07   -0.24226E-09  3072   0.642E-05    0.437E-05
DAV:  16    -0.138044321703E+04   -0.14086E-07   -0.15800E-09  3072   0.554E-05    0.165E-05
DAV:  17    -0.138044321705E+04   -0.15105E-07   -0.12278E-09  3040   0.440E-05    0.372E-05
DAV:  18    -0.138044321705E+04   -0.69413E-08   -0.37983E-10  2752   0.254E-05
  19 F= -.13998976E+04 E0= -.13998976E+04  d E =0.406969E-03  mag=    -0.0000
       N       E                     dE             d eps       ncg     rms          rms(c)
DAV:   1    -0.138044367774E+04   -0.46070E-03   -0.77721E-02  4992   0.215E-01    0.106E-01
DAV:   2    -0.138044362914E+04    0.48607E-04   -0.10901E-03  5216   0.252E-02    0.637E-02
DAV:   3    -0.138044360617E+04    0.22968E-04   -0.55245E-04  5376   0.165E-02    0.224E-02
DAV:   4    -0.138044359653E+04    0.96394E-05   -0.64302E-05  4960   0.540E-03    0.143E-02
DAV:   5    -0.138044359472E+04    0.18120E-05   -0.20784E-05  4704   0.314E-03    0.318E-03
DAV:   6    -0.138044359485E+04   -0.13570E-06   -0.20561E-06  4928   0.103E-03    0.117E-03
DAV:   7    -0.138044359514E+04   -0.28404E-06   -0.26102E-07  5152   0.375E-04    0.794E-04
DAV:   8    -0.138044359552E+04   -0.37882E-06   -0.54588E-08  4160   0.242E-04    0.266E-04
DAV:   9    -0.138044359576E+04   -0.24748E-06   -0.23496E-08  4032   0.158E-04    0.179E-04
DAV:  10    -0.138044359600E+04   -0.23098E-06   -0.84016E-09  3616   0.103E-04    0.101E-04
DAV:  11    -0.138044359619E+04   -0.19622E-06   -0.67276E-09  3488   0.893E-05    0.678E-05
DAV:  12    -0.138044359635E+04   -0.15828E-06   -0.66724E-09  3488   0.870E-05    0.412E-05
DAV:  13    -0.138044359645E+04   -0.98109E-07   -0.45101E-09  3168   0.817E-05    0.295E-05
DAV:  14    -0.138044359651E+04   -0.57582E-07   -0.35292E-09  3072   0.815E-05    0.192E-05
DAV:  15    -0.138044359654E+04   -0.30283E-07   -0.24234E-09  3072   0.636E-05    0.144E-05
DAV:  16    -0.138044359656E+04   -0.20722E-07   -0.11900E-09  3072   0.351E-05    0.911E-06
DAV:  17    -0.138044359657E+04   -0.93132E-08   -0.54448E-10  3072   0.244E-05
  20 F= -.13998983E+04 E0= -.13998983E+04  d E =-.729731E-03  mag=     0.0000
       N       E                     dE             d eps       ncg     rms          rms(c)
DAV:   1    -0.138044330676E+04    0.28980E-03   -0.76592E-02  4416   0.193E-01    0.103E-01
DAV:   2    -0.138044323925E+04    0.67510E-04   -0.78472E-04  4992   0.202E-02    0.594E-02
DAV:   3    -0.138044322427E+04    0.14978E-04   -0.39509E-04  5056   0.135E-02    0.186E-02
DAV:   4    -0.138044321766E+04    0.66156E-05   -0.42772E-05  4928   0.462E-03    0.118E-02
DAV:   5    -0.138044321700E+04    0.65130E-06   -0.16053E-05  4704   0.280E-03    0.236E-03
DAV:   6    -0.138044321718E+04   -0.17228E-06   -0.12562E-06  4672   0.869E-04    0.109E-03
DAV:   7    -0.138044321748E+04   -0.30761E-06   -0.20656E-07  5088   0.312E-04    0.801E-04
DAV:   8    -0.138044321781E+04   -0.32925E-06   -0.48294E-08  4032   0.184E-04    0.236E-04
DAV:   9    -0.138044321805E+04   -0.24085E-06   -0.17895E-08  3824   0.115E-04    0.176E-04
DAV:  10    -0.138044321826E+04   -0.20619E-06   -0.61124E-09  3328   0.765E-05    0.913E-05
DAV:  11    -0.138044321845E+04   -0.19339E-06   -0.66602E-09  3424   0.711E-05    0.524E-05
DAV:  12    -0.138044321861E+04   -0.15543E-06   -0.57691E-09  3360   0.688E-05    0.462E-05
DAV:  13    -0.138044321870E+04   -0.86715E-07   -0.34532E-09  3136   0.646E-05    0.399E-05
DAV:  14    -0.138044321878E+04   -0.79657E-07   -0.40835E-09  3232   0.628E-05    0.312E-05
DAV:  15    -0.138044321881E+04   -0.30646E-07   -0.15988E-09  3072   0.442E-05    0.269E-05
DAV:  16    -0.138044321883E+04   -0.24869E-07   -0.11423E-09  3072   0.374E-05    0.292E-05
DAV:  17    -0.138044321885E+04   -0.14566E-07   -0.48327E-10  3072   0.262E-05    0.204E-05
DAV:  18    -0.138044321885E+04   -0.79890E-08   -0.22208E-10  3008   0.189E-05
  21 F= -.13998980E+04 E0= -.13998980E+04  d E =0.379806E-03  mag=     0.0000
       N       E                     dE             d eps       ncg     rms          rms(c)
DAV:   1    -0.138044294867E+04    0.27018E-03   -0.72043E-02  4448   0.190E-01    0.773E-02
DAV:   2    -0.138044296972E+04   -0.21048E-04   -0.49896E-04  5184   0.145E-02    0.469E-02
DAV:   3    -0.138044296984E+04   -0.12797E-06   -0.83930E-05  5664   0.680E-03    0.633E-03
DAV:   4    -0.138044296976E+04    0.88112E-07   -0.10719E-05  5344   0.214E-03    0.415E-03
DAV:   5    -0.138044296991E+04   -0.15917E-06   -0.40466E-06  4704   0.150E-03    0.144E-03
DAV:   6    -0.138044297016E+04   -0.24060E-06   -0.47122E-07  4832   0.603E-04    0.737E-04
DAV:   7    -0.138044297061E+04   -0.45175E-06   -0.84141E-08  4288   0.249E-04    0.301E-04
DAV:   8    -0.138044297106E+04   -0.45011E-06   -0.30240E-08  4032   0.137E-04    0.195E-04
DAV:   9    -0.138044297156E+04   -0.50396E-06   -0.18512E-08  4096   0.107E-04    0.116E-04
DAV:  10    -0.138044297201E+04   -0.45255E-06   -0.19758E-08  4064   0.102E-04    0.648E-05
DAV:  11    -0.138044297223E+04   -0.22027E-06   -0.55718E-09  3328   0.684E-05    0.500E-05
DAV:  12    -0.138044297243E+04   -0.19801E-06   -0.79471E-09  3520   0.883E-05    0.319E-05
DAV:  13    -0.138044297254E+04   -0.10821E-06   -0.46015E-09  3168   0.790E-05    0.203E-05
DAV:  14    -0.138044297258E+04   -0.35972E-07   -0.18578E-09  3072   0.471E-05    0.150E-05
DAV:  15    -0.138044297261E+04   -0.34779E-07   -0.14641E-09  3072   0.372E-05    0.110E-05
DAV:  16    -0.138044297262E+04   -0.98080E-08   -0.64074E-10  3072   0.262E-05
  22 F= -.13998976E+04 E0= -.13998976E+04  d E =0.378340E-03  mag=     0.0000
       N       E                     dE             d eps       ncg     rms          rms(c)
DAV:   1    -0.138044368311E+04   -0.71050E-03   -0.77038E-02  4416   0.207E-01    0.102E-01
DAV:   2    -0.138044365145E+04    0.31666E-04   -0.10511E-03  4768   0.238E-02    0.612E-02
DAV:   3    -0.138044363520E+04    0.16251E-04   -0.47403E-04  5344   0.149E-02    0.207E-02
DAV:   4    -0.138044362660E+04    0.85921E-05   -0.55440E-05  4960   0.501E-03    0.129E-02
DAV:   5    -0.138044362552E+04    0.10831E-05   -0.19906E-05  5056   0.298E-03    0.233E-03
DAV:   6    -0.138044362562E+04   -0.10231E-06   -0.11969E-06  4544   0.797E-04    0.112E-03
DAV:   7    -0.138044362574E+04   -0.11739E-06   -0.24060E-07  4912   0.364E-04    0.742E-04
DAV:   8    -0.138044362591E+04   -0.16847E-06   -0.52352E-08  4064   0.190E-04    0.216E-04
DAV:   9    -0.138044362604E+04   -0.12844E-06   -0.13944E-08  3712   0.991E-05    0.146E-04
DAV:  10    -0.138044362621E+04   -0.17200E-06   -0.89845E-09  3424   0.102E-04    0.740E-05
DAV:  11    -0.138044362632E+04   -0.11004E-06   -0.69331E-09  3424   0.973E-05    0.576E-05
DAV:  12    -0.138044362640E+04   -0.79744E-07   -0.62612E-09  3168   0.107E-04    0.373E-05
DAV:  13    -0.138044362646E+04   -0.56549E-07   -0.59061E-09  3200   0.935E-05    0.334E-05
DAV:  14    -0.138044362648E+04   -0.26354E-07   -0.23651E-09  3072   0.576E-05    0.220E-05
DAV:  15    -0.138044362651E+04   -0.28464E-07   -0.22438E-09  3072   0.493E-05    0.239E-05
DAV:  16    -0.138044362652E+04   -0.69704E-08   -0.87383E-10  2944   0.354E-05
  23 F= -.13998984E+04 E0= -.13998984E+04  d E =-.775411E-03  mag=     0.0000
       N       E                     dE             d eps       ncg     rms          rms(c)
DAV:   1    -0.138044314921E+04    0.47730E-03   -0.77111E-02  4352   0.191E-01    0.104E-01
DAV:   2    -0.138044308382E+04    0.65385E-04   -0.84364E-04  4480   0.207E-02    0.594E-02
DAV:   3    -0.138044306746E+04    0.16362E-04   -0.38868E-04  4896   0.131E-02    0.186E-02
DAV:   4    -0.138044306105E+04    0.64118E-05   -0.39782E-05  4672   0.440E-03    0.120E-02
DAV:   5    -0.138044306022E+04    0.82413E-06   -0.14104E-05  4672   0.267E-03    0.254E-03
DAV:   6    -0.138044306033E+04   -0.10710E-06   -0.13122E-06  4576   0.851E-04    0.106E-03
DAV:   7    -0.138044306057E+04   -0.23494E-06   -0.20400E-07  4992   0.322E-04    0.735E-04
DAV:   8    -0.138044306083E+04   -0.26922E-06   -0.40031E-08  3968   0.163E-04    0.230E-04
DAV:   9    -0.138044306105E+04   -0.21317E-06   -0.15916E-08  3744   0.105E-04    0.169E-04
DAV:  10    -0.138044306125E+04   -0.20374E-06   -0.67583E-09  3296   0.824E-05    0.874E-05
DAV:  11    -0.138044306144E+04   -0.18721E-06   -0.78847E-09  3520   0.782E-05    0.630E-05
DAV:  12    -0.138044306158E+04   -0.14046E-06   -0.50115E-09  3232   0.660E-05    0.452E-05
DAV:  13    -0.138044306169E+04   -0.10706E-06   -0.38723E-09  3136   0.562E-05    0.335E-05
DAV:  14    -0.138044306177E+04   -0.79439E-07   -0.39255E-09  3232   0.571E-05    0.263E-05
DAV:  15    -0.138044306180E+04   -0.29962E-07   -0.16997E-09  3072   0.500E-05    0.215E-05
DAV:  16    -0.138044306182E+04   -0.26397E-07   -0.11276E-09  3072   0.388E-05    0.229E-05
DAV:  17    -0.138044306183E+04   -0.11496E-07   -0.41698E-10  3008   0.245E-05    0.140E-05
DAV:  18    -0.138044306184E+04   -0.74360E-08   -0.19544E-10  3008   0.186E-05
  24 F= -.13998978E+04 E0= -.13998978E+04  d E =0.560499E-03  mag=    -0.0000
       N       E                     dE             d eps       ncg     rms          rms(c)
DAV:   1    -0.138044304068E+04    0.21153E-04   -0.72346E-02  4384   0.187E-01    0.765E-02
DAV:   2    -0.138044306584E+04   -0.25162E-04   -0.49081E-04  4608   0.143E-02    0.460E-02
DAV:   3    -0.138044306635E+04   -0.50713E-06   -0.63694E-05  5440   0.567E-03    0.445E-03
DAV:   4    -0.138044306675E+04   -0.39807E-06   -0.66987E-06  5056   0.157E-03    0.292E-03
DAV:   5    -0.138044306681E+04   -0.58208E-07   -0.12626E-06  4576   0.910E-04    0.102E-03
DAV:   6    -0.138044306703E+04   -0.22826E-06   -0.20452E-07  4896   0.391E-04    0.515E-04
DAV:   7    -0.138044306730E+04   -0.26524E-06   -0.35106E-08  3968   0.151E-04    0.242E-04
DAV:   8    -0.138044306760E+04   -0.30170E-06   -0.14958E-08  3712   0.868E-05    0.157E-04
DAV:   9    -0.138044306805E+04   -0.44593E-06   -0.24912E-08  3904   0.118E-04    0.907E-05
DAV:  10    -0.138044306826E+04   -0.21042E-06   -0.81981E-09  3424   0.840E-05    0.654E-05
DAV:  11    -0.138044306842E+04   -0.16180E-06   -0.69940E-09  3328   0.930E-05    0.477E-05
DAV:  12    -0.138044306852E+04   -0.99186E-07   -0.54395E-09  3232   0.976E-05    0.359E-05
DAV:  13    -0.138044306859E+04   -0.70635E-07   -0.44497E-09  3200   0.734E-05    0.174E-05
DAV:  14    -0.138044306862E+04   -0.32349E-07   -0.20974E-09  3072   0.485E-05    0.150E-05
DAV:  15    -0.138044306864E+04   -0.13315E-07   -0.10573E-09  3072   0.330E-05    0.889E-06
DAV:  16    -0.138044306865E+04   -0.99826E-08   -0.56129E-10  3072   0.236E-05
  25 F= -.13998977E+04 E0= -.13998977E+04  d E =0.938692E-04  mag=     0.0000
       N       E                     dE             d eps       ncg     rms          rms(c)
DAV:   1    -0.138044295365E+04    0.11499E-03   -0.80655E-02  4544   0.212E-01    0.119E-01
DAV:   2    -0.138044289008E+04    0.63567E-04   -0.15540E-03  5184   0.295E-02    0.723E-02
DAV:   3    -0.138044285012E+04    0.39960E-04   -0.82404E-04  5280   0.202E-02    0.272E-02
DAV:   4    -0.138044283665E+04    0.13465E-04   -0.91852E-05  5152   0.673E-03    0.173E-02
DAV:   5    -0.138044283438E+04    0.22753E-05   -0.31611E-05  5056   0.392E-03    0.325E-03
DAV:   6    -0.138044283450E+04   -0.11919E-06   -0.21931E-06  5072   0.114E-03    0.132E-03
DAV:   7    -0.138044283459E+04   -0.92827E-07   -0.36372E-07  5088   0.463E-04    0.791E-04
DAV:   8    -0.138044283473E+04   -0.13669E-06   -0.44030E-08  4128   0.214E-04    0.385E-04
DAV:   9    -0.138044283487E+04   -0.14402E-06   -0.17764E-08  3872   0.135E-04    0.158E-04
DAV:  10    -0.138044283504E+04   -0.17171E-06   -0.10001E-08  3648   0.109E-04    0.112E-04
DAV:  11    -0.138044283517E+04   -0.12275E-06   -0.45710E-09  3232   0.714E-05    0.843E-05
DAV:  12    -0.138044283529E+04   -0.12708E-06   -0.77043E-09  3552   0.820E-05    0.442E-05
DAV:  13    -0.138044283535E+04   -0.59270E-07   -0.29615E-09  3072   0.716E-05    0.397E-05
DAV:  14    -0.138044283540E+04   -0.48734E-07   -0.33834E-09  3072   0.685E-05    0.210E-05
DAV:  15    -0.138044283542E+04   -0.20518E-07   -0.20968E-09  3072   0.535E-05    0.171E-05
DAV:  16    -0.138044283543E+04   -0.97061E-08   -0.90013E-10  2944   0.321E-05
  26 F= -.13998975E+04 E0= -.13998975E+04  d E =0.182764E-03  mag=    -0.0000
       N       E                     dE             d eps       ncg     rms          rms(c)
DAV:   1    -0.138044340276E+04   -0.56734E-03   -0.72995E-02  4736   0.174E-01    0.820E-02
DAV:   2    -0.138044341983E+04   -0.17066E-04   -0.53477E-04  4800   0.145E-02    0.492E-02
DAV:   3    -0.138044341570E+04    0.41281E-05   -0.11021E-04  5024   0.737E-03    0.834E-03
DAV:   4    -0.138044341495E+04    0.75431E-06   -0.12757E-05  4544   0.246E-03    0.485E-03
DAV:   5    -0.138044341483E+04    0.11630E-06   -0.52868E-06  4544   0.171E-03    0.141E-03
DAV:   6    -0.138044341489E+04   -0.60696E-07   -0.61537E-07  4448   0.622E-04    0.818E-04
DAV:   7    -0.138044341503E+04   -0.13765E-06   -0.82813E-08  4224   0.269E-04    0.309E-04
DAV:   8    -0.138044341515E+04   -0.12379E-06   -0.24813E-08  4064   0.155E-04    0.187E-04
DAV:   9    -0.138044341529E+04   -0.14123E-06   -0.11023E-08  3712   0.128E-04    0.102E-04
DAV:  10    -0.138044341542E+04   -0.12507E-06   -0.10075E-08  3648   0.122E-04    0.583E-05
DAV:  11    -0.138044341549E+04   -0.74579E-07   -0.59176E-09  3232   0.108E-04    0.426E-05
DAV:  12    -0.138044341555E+04   -0.52940E-07   -0.56293E-09  3040   0.104E-04    0.290E-05
DAV:  13    -0.138044341559E+04   -0.41706E-07   -0.43694E-09  3104   0.774E-05    0.179E-05
DAV:  14    -0.138044341561E+04   -0.26150E-07   -0.23659E-09  2944   0.491E-05    0.127E-05
DAV:  15    -0.138044341563E+04   -0.15396E-07   -0.14125E-09  3008   0.347E-05    0.103E-05
DAV:  16    -0.138044341564E+04   -0.73633E-08   -0.58766E-10  2944   0.232E-05
  27 F= -.13998981E+04 E0= -.13998981E+04  d E =-.598121E-03  mag=    -0.0000
       N       E                     dE             d eps       ncg     rms          rms(c)
DAV:   1    -0.138044386757E+04   -0.45194E-03   -0.72980E-02  5024   0.176E-01    0.830E-02
DAV:   2    -0.138044388035E+04   -0.12775E-04   -0.56842E-04  5344   0.151E-02    0.497E-02
DAV:   3    -0.138044387865E+04    0.16940E-05   -0.12786E-04  5568   0.819E-03    0.938E-03
DAV:   4    -0.138044387736E+04    0.12888E-05   -0.15369E-05  5136   0.270E-03    0.564E-03
DAV:   5    -0.138044387723E+04    0.13418E-06   -0.71594E-06  4608   0.186E-03    0.167E-03
DAV:   6    -0.138044387727E+04   -0.44223E-07   -0.75643E-07  4672   0.750E-04    0.774E-04
DAV:   7    -0.138044387739E+04   -0.12094E-06   -0.97238E-08  4288   0.285E-04    0.344E-04
DAV:   8    -0.138044387755E+04   -0.15102E-06   -0.28217E-08  4160   0.154E-04    0.176E-04
DAV:   9    -0.138044387770E+04   -0.15138E-06   -0.85308E-09  3520   0.119E-04    0.105E-04
DAV:  10    -0.138044387786E+04   -0.15790E-06   -0.84954E-09  3664   0.106E-04    0.608E-05
DAV:  11    -0.138044387796E+04   -0.10613E-06   -0.54424E-09  3360   0.903E-05    0.491E-05
DAV:  12    -0.138044387804E+04   -0.80589E-07   -0.45332E-09  3168   0.882E-05    0.299E-05
DAV:  13    -0.138044387810E+04   -0.57204E-07   -0.48348E-09  3168   0.924E-05    0.202E-05
DAV:  14    -0.138044387812E+04   -0.21522E-07   -0.25770E-09  3008   0.674E-05    0.151E-05
DAV:  15    -0.138044387813E+04   -0.13359E-07   -0.10324E-09  3008   0.312E-05    0.103E-05
DAV:  16    -0.138044387814E+04   -0.75961E-08   -0.43882E-10  2960   0.221E-05
  28 F= -.13998983E+04 E0= -.13998983E+04  d E =-.167343E-03  mag=     0.0000
       N       E                     dE             d eps       ncg     rms          rms(c)
DAV:   1    -0.138044358235E+04    0.29578E-03   -0.73863E-02  5056   0.198E-01    0.842E-02
DAV:   2    -0.138044358631E+04   -0.39549E-05   -0.51226E-04  5216   0.159E-02    0.504E-02
DAV:   3    -0.138044358346E+04    0.28489E-05   -0.13337E-04  5184   0.820E-03    0.101E-02
DAV:   4    -0.138044358168E+04    0.17751E-05   -0.13930E-05  4944   0.266E-03    0.636E-03
DAV:   5    -0.138044358142E+04    0.26256E-06   -0.87034E-06  4480   0.197E-03    0.171E-03
DAV:   6    -0.138044358144E+04   -0.19820E-07   -0.83988E-07  4448   0.706E-04    0.724E-04
DAV:   7    -0.138044358157E+04   -0.12924E-06   -0.85181E-08  4192   0.257E-04    0.316E-04
DAV:   8    -0.138044358171E+04   -0.14484E-06   -0.25724E-08  3808   0.117E-04    0.144E-04
DAV:   9    -0.138044358183E+04   -0.11902E-06   -0.49185E-09  3264   0.719E-05    0.883E-05
DAV:  10    -0.138044358199E+04   -0.15818E-06   -0.86080E-09  3648   0.790E-05    0.577E-05
DAV:  11    -0.138044358208E+04   -0.89029E-07   -0.33180E-09  3136   0.712E-05    0.397E-05
DAV:  12    -0.138044358216E+04   -0.80036E-07   -0.51117E-09  3328   0.953E-05    0.291E-05
DAV:  13    -0.138044358221E+04   -0.51092E-07   -0.36609E-09  3072   0.905E-05    0.292E-05
DAV:  14    -0.138044358224E+04   -0.28303E-07   -0.18119E-09  2944   0.526E-05    0.185E-05
DAV:  15    -0.138044358226E+04   -0.24840E-07   -0.13225E-09  3072   0.392E-05    0.153E-05
DAV:  16    -0.138044358227E+04   -0.45547E-08   -0.34531E-10  2944   0.221E-05
  29 F= -.13998983E+04 E0= -.13998983E+04  d E =-.569580E-04  mag=    -0.0000
       N       E                     dE             d eps       ncg     rms          rms(c)
DAV:   1    -0.138044345752E+04    0.12475E-03   -0.74200E-02  5120   0.197E-01    0.880E-02
DAV:   2    -0.138044343779E+04    0.19729E-04   -0.59848E-04  5440   0.184E-02    0.513E-02
DAV:   3    -0.138044342835E+04    0.94357E-05   -0.18830E-04  5760   0.103E-02    0.126E-02
DAV:   4    -0.138044342596E+04    0.23898E-05   -0.22718E-05  5728   0.344E-03    0.719E-03
DAV:   5    -0.138044342581E+04    0.15706E-06   -0.88659E-06  4960   0.211E-03    0.165E-03
DAV:   6    -0.138044342581E+04   -0.37835E-08   -0.71953E-07  5088   0.746E-04    0.906E-04
DAV:   7    -0.138044342589E+04   -0.80108E-07   -0.78869E-08  4352   0.282E-04    0.399E-04
DAV:   8    -0.138044342598E+04   -0.90280E-07   -0.21740E-08  3904   0.187E-04    0.176E-04
DAV:   9    -0.138044342607E+04   -0.90047E-07   -0.96851E-09  3648   0.136E-04    0.106E-04
DAV:  10    -0.138044342616E+04   -0.92099E-07   -0.43044E-09  3168   0.110E-04    0.612E-05
DAV:  11    -0.138044342625E+04   -0.82277E-07   -0.63221E-09  3392   0.103E-04    0.507E-05
DAV:  12    -0.138044342630E+04   -0.54497E-07   -0.36098E-09  3072   0.860E-05    0.313E-05
DAV:  13    -0.138044342633E+04   -0.33935E-07   -0.29402E-09  3072   0.730E-05    0.207E-05
DAV:  14    -0.138044342635E+04   -0.15891E-07   -0.17274E-09  3072   0.559E-05    0.172E-05
DAV:  15    -0.138044342636E+04   -0.12486E-07   -0.10383E-09  3072   0.365E-05    0.116E-05
DAV:  16    -0.138044342637E+04   -0.60973E-08   -0.34359E-10  2912   0.222E-05
  30 F= -.13998981E+04 E0= -.13998981E+04  d E =0.291779E-03  mag=    -0.0000
       N       E                     dE             d eps       ncg     rms          rms(c)
DAV:   1    -0.138044353705E+04   -0.11068E-03   -0.86736E-02  5152   0.210E-01    0.149E-01
DAV:   2    -0.138044327899E+04    0.25806E-03   -0.19059E-03  5312   0.344E-02    0.847E-02
DAV:   3    -0.138044321397E+04    0.65022E-04   -0.12553E-03  5440   0.251E-02    0.336E-02
DAV:   4    -0.138044319038E+04    0.23587E-04   -0.14776E-04  5536   0.864E-03    0.212E-02
DAV:   5    -0.138044318706E+04    0.33200E-05   -0.38124E-05  5920   0.452E-03    0.506E-03
DAV:   6    -0.138044318634E+04    0.72422E-06   -0.49668E-06  5344   0.195E-03    0.150E-03
DAV:   7    -0.138044318627E+04    0.67274E-07   -0.56149E-07  5040   0.664E-04    0.130E-03
DAV:   8    -0.138044318631E+04   -0.39188E-07   -0.12060E-07  4880   0.492E-04    0.695E-04
DAV:   9    -0.138044318644E+04   -0.12717E-06   -0.10728E-07  4960   0.470E-04    0.334E-04
DAV:  10    -0.138044318667E+04   -0.22848E-06   -0.38076E-08  4320   0.285E-04    0.300E-04
DAV:  11    -0.138044318695E+04   -0.28301E-06   -0.14398E-08  3904   0.237E-04    0.136E-04
DAV:  12    -0.138044318725E+04   -0.30601E-06   -0.29950E-08  4160   0.237E-04    0.149E-04
DAV:  13    -0.138044318740E+04   -0.14748E-06   -0.12627E-08  3904   0.139E-04    0.939E-05
DAV:  14    -0.138044318746E+04   -0.59488E-07   -0.26620E-09  3072   0.787E-05    0.503E-05
DAV:  15    -0.138044318758E+04   -0.12036E-06   -0.58422E-09  3264   0.938E-05    0.446E-05
DAV:  16    -0.138044318761E+04   -0.31549E-07   -0.24773E-09  3072   0.803E-05    0.450E-05
DAV:  17    -0.138044318766E+04   -0.43990E-07   -0.16502E-09  3040   0.492E-05    0.175E-05
DAV:  18    -0.138044318769E+04   -0.29220E-07   -0.12436E-09  3040   0.399E-05    0.351E-05
DAV:  19    -0.138044318769E+04   -0.55734E-08   -0.39572E-10  2752   0.254E-05
  31 F= -.13998977E+04 E0= -.13998977E+04  d E =0.332623E-03  mag=    -0.0000
       N       E                     dE             d eps       ncg     rms          rms(c)
DAV:   1    -0.138044374941E+04   -0.56172E-03   -0.76817E-02  5184   0.214E-01    0.103E-01
DAV:   2    -0.138044371417E+04    0.35239E-04   -0.10808E-03  5536   0.245E-02    0.627E-02
DAV:   3    -0.138044368941E+04    0.24757E-04   -0.54059E-04  5472   0.173E-02    0.224E-02
DAV:   4    -0.138044367922E+04    0.10187E-04   -0.67452E-05  5248   0.591E-03    0.144E-02
DAV:   5    -0.138044367714E+04    0.20864E-05   -0.25133E-05  5152   0.349E-03    0.303E-03
DAV:   6    -0.138044367705E+04    0.90673E-07   -0.18537E-06  4960   0.119E-03    0.129E-03
DAV:   7    -0.138044367711E+04   -0.58193E-07   -0.27712E-07  5088   0.414E-04    0.838E-04
DAV:   8    -0.138044367722E+04   -0.11594E-06   -0.52287E-08  4480   0.307E-04    0.379E-04
DAV:   9    -0.138044367736E+04   -0.13835E-06   -0.33234E-08  4224   0.229E-04    0.197E-04
DAV:  10    -0.138044367753E+04   -0.17250E-06   -0.10507E-08  3552   0.152E-04    0.143E-04
DAV:  11    -0.138044367769E+04   -0.16122E-06   -0.82916E-09  3680   0.127E-04    0.104E-04
DAV:  12    -0.138044367790E+04   -0.20330E-06   -0.12381E-08  3808   0.138E-04    0.739E-05
DAV:  13    -0.138044367798E+04   -0.83965E-07   -0.45257E-09  3200   0.935E-05    0.555E-05
DAV:  14    -0.138044367805E+04   -0.66502E-07   -0.40465E-09  3104   0.818E-05    0.471E-05
DAV:  15    -0.138044367809E+04   -0.43292E-07   -0.30901E-09  3072   0.705E-05    0.379E-05
DAV:  16    -0.138044367811E+04   -0.17913E-07   -0.17495E-09  3008   0.539E-05    0.195E-05
DAV:  17    -0.138044367813E+04   -0.17812E-07   -0.13512E-09  3072   0.435E-05    0.354E-05
DAV:  18    -0.138044367813E+04   -0.78871E-08   -0.44232E-10  2944   0.273E-05
  32 F= -.13998984E+04 E0= -.13998984E+04  d E =-.645859E-03  mag=    -0.0000
       N       E                     dE             d eps       ncg     rms          rms(c)
DAV:   1    -0.138044317723E+04    0.50090E-03   -0.77321E-02  4992   0.203E-01    0.103E-01
DAV:   2    -0.138044311988E+04    0.57352E-04   -0.82068E-04  5120   0.212E-02    0.592E-02
DAV:   3    -0.138044310238E+04    0.17494E-04   -0.37434E-04  5152   0.132E-02    0.183E-02
DAV:   4    -0.138044309599E+04    0.63926E-05   -0.41654E-05  4864   0.442E-03    0.117E-02
DAV:   5    -0.138044309504E+04    0.94537E-06   -0.13185E-05  4864   0.256E-03    0.255E-03
DAV:   6    -0.138044309506E+04   -0.16356E-07   -0.12933E-06  4784   0.816E-04    0.102E-03
DAV:   7    -0.138044309506E+04    0.23283E-08   -0.16274E-07  4864   0.278E-04    0.656E-04
DAV:   8    -0.138044309510E+04   -0.37762E-07   -0.29217E-08  3904   0.164E-04    0.204E-04
DAV:   9    -0.138044309513E+04   -0.38068E-07   -0.99000E-09  3520   0.104E-04    0.129E-04
DAV:  10    -0.138044309519E+04   -0.55559E-07   -0.47088E-09  3200   0.836E-05    0.739E-05
DAV:  11    -0.138044309523E+04   -0.38272E-07   -0.26349E-09  3072   0.744E-05    0.470E-05
DAV:  12    -0.138044309528E+04   -0.50335E-07   -0.51564E-09  3232   0.905E-05    0.572E-05
DAV:  13    -0.138044309530E+04   -0.17390E-07   -0.24799E-09  3072   0.793E-05    0.411E-05
DAV:  14    -0.138044309531E+04   -0.18830E-07   -0.24911E-09  3072   0.669E-05    0.472E-05
DAV:  15    -0.138044309533E+04   -0.15556E-07   -0.13355E-09  3072   0.487E-05    0.327E-05
DAV:  16    -0.138044309534E+04   -0.87166E-08   -0.80353E-10  2880   0.314E-05
  33 F= -.13998978E+04 E0= -.13998978E+04  d E =0.589944E-03  mag=    -0.0000
       N       E                     dE             d eps       ncg     rms          rms(c)
DAV:   1    -0.138044332812E+04   -0.23279E-03   -0.73202E-02  4928   0.198E-01    0.791E-02
DAV:   2    -0.138044335609E+04   -0.27977E-04   -0.53574E-04  5440   0.156E-02    0.477E-02
DAV:   3    -0.138044335365E+04    0.24412E-05   -0.68640E-05  5136   0.615E-03    0.485E-03
DAV:   4    -0.138044335406E+04   -0.40395E-06   -0.71448E-06  5152   0.177E-03    0.287E-03
DAV:   5    -0.138044335390E+04    0.15534E-06   -0.10316E-06  4608   0.869E-04    0.113E-03
DAV:   6    -0.138044335395E+04   -0.53566E-07   -0.21471E-07  4752   0.404E-04    0.490E-04
DAV:   7    -0.138044335406E+04   -0.10568E-06   -0.25327E-08  4032   0.166E-04    0.233E-04
DAV:   8    -0.138044335419E+04   -0.13410E-06   -0.10625E-08  3440   0.113E-04    0.138E-04
DAV:   9    -0.138044335434E+04   -0.14582E-06   -0.80292E-09  3376   0.103E-04    0.770E-05
DAV:  10    -0.138044335448E+04   -0.14053E-06   -0.79909E-09  3280   0.944E-05    0.723E-05
DAV:  11    -0.138044335454E+04   -0.58979E-07   -0.32864E-09  3072   0.749E-05    0.474E-05
DAV:  12    -0.138044335462E+04   -0.85027E-07   -0.67076E-09  3184   0.879E-05    0.660E-05
DAV:  13    -0.138044335464E+04   -0.20809E-07   -0.19408E-09  3072   0.597E-05    0.499E-05
DAV:  14    -0.138044335467E+04   -0.29017E-07   -0.26847E-09  3008   0.653E-05    0.510E-05
DAV:  15    -0.138044335469E+04   -0.16924E-07   -0.99905E-10  3072   0.424E-05    0.384E-05
DAV:  16    -0.138044335470E+04   -0.10114E-07   -0.76815E-10  3072   0.341E-05    0.998E-06
DAV:  17    -0.138044335470E+04   -0.44383E-08   -0.17001E-10  3008   0.194E-05
  34 F= -.13998978E+04 E0= -.13998978E+04  d E =-.434873E-04  mag=     0.0000
       N       E                     dE             d eps       ncg     rms          rms(c)
DAV:   1    -0.138044360584E+04   -0.25114E-03   -0.75944E-02  4928   0.206E-01    0.964E-02
DAV:   2    -0.138044359280E+04    0.13033E-04   -0.95350E-04  5184   0.223E-02    0.590E-02
DAV:   3    -0.138044357852E+04    0.14279E-04   -0.41193E-04  5376   0.144E-02    0.193E-02
DAV:   4    -0.138044357143E+04    0.70974E-05   -0.50992E-05  4800   0.481E-03    0.124E-02
DAV:   5    -0.138044356969E+04    0.17406E-05   -0.17436E-05  4672   0.286E-03    0.270E-03
DAV:   6    -0.138044356987E+04   -0.18605E-06   -0.16137E-06  4704   0.868E-04    0.108E-03
DAV:   7    -0.138044357010E+04   -0.22702E-06   -0.24997E-07  4928   0.361E-04    0.617E-04
DAV:   8    -0.138044357041E+04   -0.31275E-06   -0.57066E-08  4096   0.201E-04    0.205E-04
DAV:   9    -0.138044357059E+04   -0.18177E-06   -0.11509E-08  3552   0.104E-04    0.133E-04
DAV:  10    -0.138044357083E+04   -0.23516E-06   -0.11128E-08  3728   0.857E-05    0.924E-05
DAV:  11    -0.138044357094E+04   -0.11155E-06   -0.28983E-09  3136   0.632E-05    0.623E-05
DAV:  12    -0.138044357110E+04   -0.15962E-06   -0.78836E-09  3440   0.822E-05    0.640E-05
DAV:  13    -0.138044357116E+04   -0.59124E-07   -0.29073E-09  3072   0.755E-05    0.366E-05
DAV:  14    -0.138044357122E+04   -0.59954E-07   -0.40213E-09  3072   0.764E-05    0.536E-05
DAV:  15    -0.138044357125E+04   -0.26819E-07   -0.18207E-09  3072   0.570E-05    0.387E-05
DAV:  16    -0.138044357126E+04   -0.18466E-07   -0.14301E-09  3072   0.469E-05    0.216E-05
DAV:  17    -0.138044357128E+04   -0.12689E-07   -0.66571E-10  3072   0.301E-05    0.254E-05
DAV:  18    -0.138044357128E+04   -0.62282E-08   -0.20968E-10  3040   0.169E-05
  35 F= -.13998983E+04 E0= -.13998983E+04  d E =-.483574E-03  mag=     0.0000
       N       E                     dE             d eps       ncg     rms          rms(c)
DAV:   1    -0.138044335468E+04    0.21660E-03   -0.74471E-02  4352   0.187E-01    0.876E-02
DAV:   2    -0.138044334453E+04    0.10153E-04   -0.56072E-04  4672   0.157E-02    0.519E-02
DAV:   3    -0.138044334064E+04    0.38836E-05   -0.17320E-04  5600   0.890E-03    0.110E-02
DAV:   4    -0.138044333835E+04    0.22949E-05   -0.21252E-05  4832   0.313E-03    0.654E-03
DAV:   5    -0.138044333835E+04   -0.64028E-08   -0.78620E-06  4704   0.198E-03    0.156E-03
DAV:   6    -0.138044333861E+04   -0.25735E-06   -0.70084E-07  4608   0.625E-04    0.881E-04
DAV:   7    -0.138044333895E+04   -0.34258E-06   -0.88824E-08  4256   0.249E-04    0.315E-04
DAV:   8    -0.138044333927E+04   -0.32157E-06   -0.28398E-08  4000   0.129E-04    0.195E-04
DAV:   9    -0.138044333966E+04   -0.38538E-06   -0.12598E-08  3872   0.922E-05    0.995E-05
DAV:  10    -0.138044333999E+04   -0.33337E-06   -0.11924E-08  3728   0.927E-05    0.699E-05
DAV:  11    -0.138044334019E+04   -0.20029E-06   -0.64253E-09  3488   0.823E-05    0.575E-05
DAV:  12    -0.138044334036E+04   -0.16246E-06   -0.63322E-09  3328   0.866E-05    0.344E-05
DAV:  13    -0.138044334045E+04   -0.91561E-07   -0.44472E-09  3104   0.728E-05    0.268E-05
DAV:  14    -0.138044334048E+04   -0.33790E-07   -0.19818E-09  3072   0.469E-05    0.218E-05
DAV:  15    -0.138044334050E+04   -0.20940E-07   -0.11371E-09  3056   0.356E-05    0.118E-05
DAV:  16    -0.138044334051E+04   -0.71741E-08   -0.52673E-10  3056   0.257E-05
  36 F= -.13998980E+04 E0= -.13998980E+04  d E =0.286307E-03  mag=    -0.0000
       N       E                     dE             d eps       ncg     rms          rms(c)
DAV:   1    -0.138044303220E+04    0.30830E-03   -0.86362E-02  4384   0.196E-01    0.143E-01
DAV:   2    -0.138044283145E+04    0.20075E-03   -0.19361E-03  4928   0.331E-02    0.813E-02
DAV:   3    -0.138044277027E+04    0.61178E-04   -0.96418E-04  5056   0.205E-02    0.287E-02
DAV:   4    -0.138044275455E+04    0.15720E-04   -0.10897E-04  5056   0.697E-03    0.176E-02
DAV:   5    -0.138044275290E+04    0.16515E-05   -0.22648E-05  5696   0.346E-03    0.397E-03
DAV:   6    -0.138044275283E+04    0.73283E-07   -0.27503E-06  4768   0.121E-03    0.120E-03
DAV:   7    -0.138044275317E+04   -0.34038E-06   -0.43767E-07  5152   0.477E-04    0.926E-04
DAV:   8    -0.138044275348E+04   -0.31225E-06   -0.40367E-08  4032   0.198E-04    0.428E-04
DAV:   9    -0.138044275393E+04   -0.44472E-06   -0.33187E-08  4128   0.143E-04    0.187E-04
DAV:  10    -0.138044275432E+04   -0.39444E-06   -0.15218E-08  3856   0.119E-04    0.144E-04
DAV:  11    -0.138044275461E+04   -0.29302E-06   -0.97773E-09  3680   0.938E-05    0.815E-05
DAV:  12    -0.138044275494E+04   -0.33047E-06   -0.18891E-08  4128   0.120E-04    0.681E-05
DAV:  13    -0.138044275505E+04   -0.11030E-06   -0.43592E-09  3248   0.910E-05    0.574E-05
DAV:  14    -0.138044275515E+04   -0.95810E-07   -0.41967E-09  3136   0.752E-05    0.309E-05
DAV:  15    -0.138044275522E+04   -0.72832E-07   -0.32311E-09  3104   0.646E-05    0.357E-05
DAV:  16    -0.138044275525E+04   -0.24665E-07   -0.13344E-09  3072   0.421E-05    0.202E-05
DAV:  17    -0.138044275528E+04   -0.31287E-07   -0.10443E-09  3072   0.379E-05    0.227E-05
DAV:  18    -0.138044275529E+04   -0.12573E-07   -0.41690E-10  3072   0.256E-05    0.190E-05
DAV:  19    -0.138044275530E+04   -0.71450E-08   -0.78513E-11  2752   0.187E-05
  37 F= -.13998974E+04 E0= -.13998974E+04  d E =0.604613E-03  mag=     0.0000
       N       E                     dE             d eps       ncg     rms          rms(c)
DAV:   1    -0.138044364106E+04   -0.88577E-03   -0.77630E-02  4480   0.210E-01    0.104E-01
DAV:   2    -0.138044361329E+04    0.27773E-04   -0.11734E-03  4800   0.245E-02    0.620E-02
DAV:   3    -0.138044359633E+04    0.16959E-04   -0.49377E-04  5376   0.147E-02    0.210E-02
DAV:   4    -0.138044358758E+04    0.87480E-05   -0.55993E-05  4832   0.493E-03    0.131E-02
DAV:   5    -0.138044358603E+04    0.15544E-05   -0.21245E-05  4768   0.303E-03    0.227E-03
DAV:   6    -0.138044358620E+04   -0.17323E-06   -0.14385E-06  4704   0.790E-04    0.113E-03
DAV:   7    -0.138044358629E+04   -0.89814E-07   -0.25171E-07  4672   0.369E-04    0.678E-04
DAV:   8    -0.138044358645E+04   -0.15725E-06   -0.55439E-08  4032   0.187E-04    0.241E-04
DAV:   9    -0.138044358659E+04   -0.14015E-06   -0.14786E-08  3808   0.958E-05    0.143E-04
DAV:  10    -0.138044358679E+04   -0.19983E-06   -0.96512E-09  3712   0.877E-05    0.839E-05
DAV:  11    -0.138044358692E+04   -0.12691E-06   -0.50066E-09  3296   0.705E-05    0.575E-05
DAV:  12    -0.138044358702E+04   -0.10428E-06   -0.49564E-09  3200   0.723E-05    0.409E-05
DAV:  13    -0.138044358709E+04   -0.69049E-07   -0.39224E-09  3088   0.624E-05    0.337E-05
DAV:  14    -0.138044358714E+04   -0.49957E-07   -0.31601E-09  3072   0.547E-05    0.191E-05
DAV:  15    -0.138044358717E+04   -0.24942E-07   -0.22546E-09  3072   0.494E-05    0.156E-05
DAV:  16    -0.138044358717E+04   -0.74506E-08   -0.94688E-10  2944   0.314E-05
  38 F= -.13998983E+04 E0= -.13998983E+04  d E =-.889106E-03  mag=    -0.0000
       N       E                     dE             d eps       ncg     rms          rms(c)
DAV:   1    -0.138044341187E+04    0.17530E-03   -0.74009E-02  4416   0.203E-01    0.840E-02
DAV:   2    -0.138044341603E+04   -0.41607E-05   -0.55986E-04  4608   0.162E-02    0.500E-02
DAV:   3    -0.138044341487E+04    0.11550E-05   -0.13430E-04  5024   0.822E-03    0.945E-03
DAV:   4    -0.138044341333E+04    0.15457E-05   -0.14486E-05  4544   0.277E-03    0.573E-03
DAV:   5    -0.138044341322E+04    0.10441E-06   -0.60956E-06  4672   0.179E-03    0.149E-03
DAV:   6    -0.138044341339E+04   -0.16521E-06   -0.61177E-07  4512   0.646E-04    0.832E-04
DAV:   7    -0.138044341355E+04   -0.16102E-06   -0.66945E-08  4224   0.230E-04    0.342E-04
DAV:   8    -0.138044341376E+04   -0.20847E-06   -0.24997E-08  4032   0.118E-04    0.191E-04
DAV:   9    -0.138044341393E+04   -0.16949E-06   -0.60777E-09  3264   0.830E-05    0.900E-05
DAV:  10    -0.138044341413E+04   -0.19866E-06   -0.94278E-09  3520   0.768E-05    0.903E-05
DAV:  11    -0.138044341422E+04   -0.98691E-07   -0.28616E-09  3136   0.707E-05    0.614E-05
DAV:  12    -0.138044341436E+04   -0.13123E-06   -0.77102E-09  3328   0.836E-05    0.633E-05
DAV:  13    -0.138044341438E+04   -0.22192E-07   -0.12858E-09  3072   0.512E-05    0.482E-05
DAV:  14    -0.138044341443E+04   -0.50029E-07   -0.35740E-09  3008   0.697E-05    0.723E-05
DAV:  15    -0.138044341444E+04   -0.13155E-07   -0.11454E-09  3072   0.538E-05    0.431E-05
DAV:  16    -0.138044341445E+04   -0.61700E-08   -0.97332E-10  2880   0.398E-05
  39 F= -.13998981E+04 E0= -.13998981E+04  d E =0.216100E-03  mag=     0.0000
       N       E                     dE             d eps       ncg     rms          rms(c)
DAV:   1    -0.138044305231E+04    0.36214E-03   -0.85768E-02  4416   0.214E-01    0.140E-01
DAV:   2    -0.138044286090E+04    0.19140E-03   -0.18716E-03  4736   0.344E-02    0.795E-02
DAV:   3    -0.138044280463E+04    0.56273E-04   -0.94315E-04  4896   0.212E-02    0.286E-02
DAV:   4    -0.138044278884E+04    0.15790E-04   -0.10560E-04  4864   0.715E-03    0.180E-02
DAV:   5    -0.138044278699E+04    0.18478E-05   -0.25092E-05  5568   0.369E-03    0.393E-03
DAV:   6    -0.138044278694E+04    0.48822E-07   -0.29069E-06  4736   0.126E-03    0.120E-03
DAV:   7    -0.138044278723E+04   -0.28851E-06   -0.39248E-07  5184   0.469E-04    0.967E-04
DAV:   8    -0.138044278752E+04   -0.29066E-06   -0.40279E-08  4160   0.199E-04    0.445E-04
DAV:   9    -0.138044278791E+04   -0.38548E-06   -0.37186E-08  4096   0.154E-04    0.190E-04
DAV:  10    -0.138044278823E+04   -0.32099E-06   -0.11988E-08  3648   0.107E-04    0.152E-04
DAV:  11    -0.138044278857E+04   -0.34274E-06   -0.15546E-08  3856   0.116E-04    0.738E-05
DAV:  12    -0.138044278883E+04   -0.25936E-06   -0.13095E-08  3744   0.124E-04    0.658E-05
DAV:  13    -0.138044278897E+04   -0.14380E-06   -0.67961E-09  3232   0.111E-04    0.452E-05
DAV:  14    -0.138044278908E+04   -0.10987E-06   -0.67064E-09  3424   0.990E-05    0.258E-05
DAV:  15    -0.138044278915E+04   -0.62937E-07   -0.30267E-09  3104   0.739E-05    0.214E-05
DAV:  16    -0.138044278919E+04   -0.42477E-07   -0.15421E-09  3072   0.422E-05    0.122E-05
DAV:  17    -0.138044278921E+04   -0.25510E-07   -0.78447E-10  3072   0.310E-05    0.977E-06
DAV:  18    -0.138044278922E+04   -0.92114E-08   -0.23086E-10  3072   0.199E-05
  40 F= -.13998974E+04 E0= -.13998974E+04  d E =0.650614E-03  mag=    -0.0000
       N       E                     dE             d eps       ncg     rms          rms(c)
DAV:   1    -0.138044366331E+04   -0.87410E-03   -0.77996E-02  4992   0.209E-01    0.106E-01
DAV:   2    -0.138044364522E+04    0.18097E-04   -0.13111E-03  5024   0.264E-02    0.641E-02
DAV:   3    -0.138044362205E+04    0.23166E-04   -0.49694E-04  5216   0.151E-02    0.214E-02
DAV:   4    -0.138044361348E+04    0.85668E-05   -0.53794E-05  4800   0.501E-03    0.133E-02
DAV:   5    -0.138044361172E+04    0.17618E-05   -0.18278E-05  4832   0.299E-03    0.283E-03
DAV:   6    -0.138044361181E+04   -0.86307E-07   -0.15742E-06  4512   0.859E-04    0.117E-03
DAV:   7    -0.138044361188E+04   -0.77416E-07   -0.29455E-07  4992   0.410E-04    0.643E-04
DAV:   8    -0.138044361209E+04   -0.20239E-06   -0.55401E-08  4128   0.199E-04    0.266E-04
DAV:   9    -0.138044361230E+04   -0.21745E-06   -0.19010E-08  3840   0.112E-04    0.163E-04
DAV:  10    -0.138044361259E+04   -0.28616E-06   -0.13652E-08  3616   0.104E-04    0.982E-05
DAV:  11    -0.138044361277E+04   -0.17714E-06   -0.71322E-09  3360   0.826E-05    0.624E-05
DAV:  12    -0.138044361293E+04   -0.15706E-06   -0.63523E-09  3328   0.797E-05    0.424E-05
DAV:  13    -0.138044361303E+04   -0.10623E-06   -0.52524E-09  3296   0.793E-05    0.326E-05
DAV:  14    -0.138044361308E+04   -0.48487E-07   -0.28302E-09  3072   0.735E-05    0.206E-05
DAV:  15    -0.138044361311E+04   -0.34925E-07   -0.22971E-09  3104   0.543E-05    0.132E-05
DAV:  16    -0.138044361313E+04   -0.14974E-07   -0.88392E-10  3072   0.333E-05    0.103E-05
DAV:  17    -0.138044361314E+04   -0.68976E-08   -0.46301E-10  3040   0.258E-05
  41 F= -.13998983E+04 E0= -.13998983E+04  d E =-.870707E-03  mag=     0.0000
       N       E                     dE             d eps       ncg     rms          rms(c)
DAV:   1    -0.138044328768E+04    0.32545E-03   -0.74084E-02  5024   0.189E-01    0.857E-02
DAV:   2    -0.138044328440E+04    0.32770E-05   -0.62558E-04  5184   0.171E-02    0.507E-02
DAV:   3    -0.138044327733E+04    0.70672E-05   -0.16701E-04  5536   0.905E-03    0.115E-02
DAV:   4    -0.138044327487E+04    0.24644E-05   -0.21521E-05  5120   0.330E-03    0.617E-03
DAV:   5    -0.138044327475E+04    0.11596E-06   -0.65842E-06  5184   0.187E-03    0.163E-03
DAV:   6    -0.138044327478E+04   -0.30224E-07   -0.57824E-07  4896   0.659E-04    0.843E-04
DAV:   7    -0.138044327486E+04   -0.71843E-07   -0.71221E-08  4160   0.236E-04    0.323E-04
DAV:   8    -0.138044327495E+04   -0.90338E-07   -0.22540E-08  4032   0.130E-04    0.160E-04
DAV:   9    -0.138044327505E+04   -0.99200E-07   -0.43318E-09  3200   0.740E-05    0.993E-05
DAV:  10    -0.138044327518E+04   -0.13235E-06   -0.68528E-09  3488   0.668E-05    0.535E-05
DAV:  11    -0.138044327526E+04   -0.81884E-07   -0.29434E-09  3072   0.535E-05    0.415E-05
DAV:  12    -0.138044327534E+04   -0.81214E-07   -0.34906E-09  3072   0.559E-05    0.327E-05
DAV:  13    -0.138044327538E+04   -0.40702E-07   -0.23097E-09  3072   0.567E-05    0.193E-05
DAV:  14    -0.138044327541E+04   -0.27721E-07   -0.22123E-09  3072   0.500E-05    0.133E-05
DAV:  15    -0.138044327542E+04   -0.82800E-08   -0.84529E-10  3040   0.331E-05
  42 F= -.13998981E+04 E0= -.13998981E+04  d E =0.247582E-03  mag=     0.0000
       N       E                     dE             d eps       ncg     rms          rms(c)
DAV:   1    -0.138044347634E+04   -0.20094E-03   -0.86689E-02  4992   0.201E-01    0.144E-01
DAV:   2    -0.138044325933E+04    0.21701E-03   -0.18776E-03  5312   0.318E-02    0.816E-02
DAV:   3    -0.138044320209E+04    0.57243E-04   -0.10137E-03  5312   0.214E-02    0.296E-02
DAV:   4    -0.138044318365E+04    0.18443E-04   -0.12367E-04  5184   0.751E-03    0.174E-02
DAV:   5    -0.138044318232E+04    0.13282E-05   -0.26727E-05  5984   0.392E-03    0.378E-03
DAV:   6    -0.138044318216E+04    0.16409E-06   -0.24044E-06  5120   0.127E-03    0.132E-03
DAV:   7    -0.138044318214E+04    0.12893E-07   -0.35809E-07  5280   0.448E-04    0.820E-04
DAV:   8    -0.138044318219E+04   -0.46202E-07   -0.43862E-08  4064   0.270E-04    0.377E-04
DAV:   9    -0.138044318224E+04   -0.46086E-07   -0.23528E-08  4032   0.193E-04    0.177E-04
DAV:  10    -0.138044318232E+04   -0.84532E-07   -0.85356E-09  3392   0.131E-04    0.120E-04
DAV:  11    -0.138044318241E+04   -0.87850E-07   -0.57538E-09  3232   0.117E-04    0.790E-05
DAV:  12    -0.138044318250E+04   -0.93089E-07   -0.91586E-09  3520   0.123E-04    0.560E-05
DAV:  13    -0.138044318255E+04   -0.53871E-07   -0.42516E-09  3072   0.913E-05    0.470E-05
DAV:  14    -0.138044318261E+04   -0.53624E-07   -0.38683E-09  3136   0.692E-05    0.276E-05
DAV:  15    -0.138044318264E+04   -0.32320E-07   -0.22903E-09  3072   0.567E-05    0.252E-05
DAV:  16    -0.138044318265E+04   -0.13577E-07   -0.12521E-09  3072   0.447E-05    0.149E-05
DAV:  17    -0.138044318267E+04   -0.14232E-07   -0.84553E-10  3024   0.360E-05    0.206E-05
DAV:  18    -0.138044318268E+04   -0.73342E-08   -0.30279E-10  3008   0.230E-05
  43 F= -.13998976E+04 E0= -.13998976E+04  d E =0.433126E-03  mag=    -0.0000
       N       E                     dE             d eps       ncg     rms          rms(c)
DAV:   1    -0.138044371331E+04   -0.53064E-03   -0.77923E-02  4992   0.201E-01    0.106E-01
DAV:   2    -0.138044366829E+04    0.45027E-04   -0.11300E-03  5312   0.243E-02    0.638E-02
DAV:   3    -0.138044364496E+04    0.23323E-04   -0.53409E-04  5440   0.166E-02    0.217E-02
DAV:   4    -0.138044363518E+04    0.97853E-05   -0.63835E-05  5312   0.564E-03    0.133E-02
DAV:   5    -0.138044363349E+04    0.16844E-05   -0.21239E-05  5024   0.332E-03    0.265E-03
DAV:   6    -0.138044363355E+04   -0.54933E-07   -0.15137E-06  5328   0.107E-03    0.115E-03
DAV:   7    -0.138044363370E+04   -0.15600E-06   -0.18528E-07  5008   0.365E-04    0.710E-04
DAV:   8    -0.138044363398E+04   -0.27886E-06   -0.58528E-08  4320   0.323E-04    0.289E-04
DAV:   9    -0.138044363418E+04   -0.20138E-06   -0.24943E-08  4000   0.193E-04    0.193E-04
DAV:  10    -0.138044363440E+04   -0.21905E-06   -0.84881E-09  3296   0.129E-04    0.116E-04
DAV:  11    -0.138044363464E+04   -0.23964E-06   -0.11999E-08  3712   0.131E-04    0.926E-05
DAV:  12    -0.138044363483E+04   -0.18791E-06   -0.95622E-09  3520   0.132E-04    0.532E-05
DAV:  13    -0.138044363493E+04   -0.10256E-06   -0.54473E-09  3072   0.104E-04    0.507E-05
DAV:  14    -0.138044363499E+04   -0.61176E-07   -0.40489E-09  3072   0.912E-05    0.314E-05
DAV:  15    -0.138044363503E+04   -0.36060E-07   -0.34184E-09  3072   0.877E-05    0.259E-05
DAV:  16    -0.138044363505E+04   -0.21450E-07   -0.16552E-09  3072   0.527E-05    0.229E-05
DAV:  17    -0.138044363506E+04   -0.10536E-07   -0.77130E-10  3072   0.331E-05    0.119E-05
DAV:  18    -0.138044363507E+04   -0.56607E-08   -0.29785E-10  2976   0.235E-05
  44 F= -.13998983E+04 E0= -.13998983E+04  d E =-.685531E-03  mag=     0.0000
       N       E                     dE             d eps       ncg     rms          rms(c)
[...]
DAV:   6    -0.138044147572E+04   -0.57346E-06   -0.20957E-06  4864   0.103E-03    0.175E-03
DAV:   7    -0.138044147614E+04   -0.42093E-06   -0.28721E-07  4416   0.497E-04    0.665E-04
DAV:   8    -0.138044147653E+04   -0.39070E-06   -0.94886E-08  4768   0.295E-04    0.252E-04
DAV:   9    -0.138044147679E+04   -0.26013E-06   -0.15259E-08  3712   0.142E-04    0.158E-04
DAV:  10    -0.138044147708E+04   -0.29616E-06   -0.12338E-08  3712   0.122E-04    0.856E-05
DAV:  11    -0.138044147727E+04   -0.18632E-06   -0.63411E-09  3360   0.916E-05    0.624E-05
DAV:  12    -0.138044147745E+04   -0.17941E-06   -0.63574E-09  3328   0.807E-05    0.427E-05
DAV:  13    -0.138044147760E+04   -0.14731E-06   -0.51925E-09  3168   0.713E-05    0.283E-05
DAV:  14    -0.138044147766E+04   -0.68496E-07   -0.29575E-09  3072   0.540E-05    0.191E-05
DAV:  15    -0.138044147771E+04   -0.46275E-07   -0.20447E-09  3072   0.425E-05    0.130E-05
DAV:  16    -0.138044147773E+04   -0.22672E-07   -0.11018E-09  3072   0.341E-05    0.101E-05
DAV:  17    -0.138044147775E+04   -0.12020E-07   -0.61567E-10  3072   0.293E-05    0.691E-06
DAV:  18    -0.138044147775E+04   -0.54570E-08   -0.19294E-10  2944   0.187E-05
  60 F= -.13998961E+04 E0= -.13998961E+04  d E =0.342125E-03  mag=    -0.0000
       N       E                     dE             d eps       ncg     rms          rms(c)
DAV:   1    -0.138044158156E+04   -0.10381E-03   -0.49123E-01  4800   0.563E-01    0.137E-01
DAV:   2    -0.138044166291E+04   -0.81352E-04   -0.34746E-03  5248   0.434E-02    0.880E-02
DAV:   3    -0.138044155226E+04    0.11065E-03   -0.54701E-04  5536   0.173E-02    0.236E-02
DAV:   4    -0.138044156230E+04   -0.10033E-04   -0.14344E-04  6016   0.557E-03    0.983E-03
DAV:   5    -0.138044156122E+04    0.10727E-05   -0.14242E-05  4640   0.265E-03    0.453E-03
DAV:   6    -0.138044156244E+04   -0.12160E-05   -0.16046E-06  5056   0.904E-04    0.194E-03
DAV:   7    -0.138044156400E+04   -0.15580E-05   -0.69679E-07  4448   0.737E-04    0.571E-04
DAV:   8    -0.138044156518E+04   -0.11799E-05   -0.15202E-07  5104   0.334E-04    0.455E-04
DAV:   9    -0.138044156638E+04   -0.12067E-05   -0.37737E-08  4080   0.158E-04    0.240E-04
DAV:  10    -0.138044156808E+04   -0.16923E-05   -0.76966E-08  4160   0.185E-04    0.203E-04
DAV:  11    -0.138044156864E+04   -0.56514E-06   -0.14466E-08  4096   0.104E-04    0.122E-04
DAV:  12    -0.138044156932E+04   -0.67815E-06   -0.17613E-08  4000   0.898E-05    0.661E-05
DAV:  13    -0.138044156974E+04   -0.42426E-06   -0.11398E-08  3744   0.745E-05    0.491E-05
DAV:  14    -0.138044156990E+04   -0.15671E-06   -0.25509E-09  3072   0.610E-05    0.348E-05
DAV:  15    -0.138044157001E+04   -0.10546E-06   -0.25413E-09  3072   0.590E-05    0.215E-05
DAV:  16    -0.138044157006E+04   -0.57931E-07   -0.16791E-09  3072   0.513E-05    0.136E-05
DAV:  17    -0.138044157008E+04   -0.19907E-07   -0.92207E-10  3072   0.399E-05    0.889E-06
DAV:  18    -0.138044157009E+04   -0.53697E-08   -0.34653E-10  3072   0.258E-05
  61 F= -.13998960E+04 E0= -.13998960E+04  d E =0.114378E-03  mag=     0.0000
       N       E                     dE             d eps       ncg     rms          rms(c)
DAV:   1    -0.138044164482E+04   -0.74738E-04   -0.48862E-01  5056   0.566E-01    0.136E-01
DAV:   2    -0.138044188300E+04   -0.23818E-03   -0.49580E-03  5312   0.528E-02    0.886E-02
DAV:   3    -0.138044176891E+04    0.11409E-03   -0.54305E-04  5408   0.172E-02    0.332E-02
DAV:   4    -0.138044177550E+04   -0.65830E-05   -0.14994E-04  5664   0.691E-03    0.110E-02
DAV:   5    -0.138044177406E+04    0.14326E-05   -0.17736E-05  5088   0.292E-03    0.497E-03
DAV:   6    -0.138044177483E+04   -0.76502E-06   -0.26705E-06  5344   0.111E-03    0.190E-03
DAV:   7    -0.138044177572E+04   -0.89587E-06   -0.37201E-07  4416   0.544E-04    0.733E-04
DAV:   8    -0.138044177654E+04   -0.81271E-06   -0.13003E-07  4768   0.275E-04    0.325E-04
DAV:   9    -0.138044177713E+04   -0.59114E-06   -0.25182E-08  4000   0.142E-04    0.198E-04
DAV:  10    -0.138044177796E+04   -0.83401E-06   -0.34113E-08  4288   0.128E-04    0.119E-04
DAV:  11    -0.138044177857E+04   -0.60977E-06   -0.21856E-08  4128   0.111E-04    0.787E-05
DAV:  12    -0.138044177900E+04   -0.42647E-06   -0.12706E-08  3808   0.942E-05    0.608E-05
DAV:  13    -0.138044177931E+04   -0.31578E-06   -0.11744E-08  3872   0.986E-05    0.407E-05
DAV:  14    -0.138044177947E+04   -0.15507E-06   -0.45553E-09  3296   0.875E-05    0.269E-05
DAV:  15    -0.138044177957E+04   -0.10051E-06   -0.33050E-09  3072   0.716E-05    0.191E-05
DAV:  16    -0.138044177962E+04   -0.54657E-07   -0.18793E-09  3072   0.511E-05    0.130E-05
DAV:  17    -0.138044177965E+04   -0.28740E-07   -0.84747E-10  3072   0.338E-05    0.707E-06
DAV:  18    -0.138044177966E+04   -0.10448E-07   -0.33683E-10  3072   0.234E-05    0.665E-06
DAV:  19    -0.138044177967E+04   -0.45839E-08   -0.30778E-11  3008   0.132E-05
  62 F= -.13998964E+04 E0= -.13998964E+04  d E =-.437671E-03  mag=    -0.0000
       N       E                     dE             d eps       ncg     rms          rms(c)
DAV:   1    -0.138044129949E+04    0.48018E-03   -0.48572E-01  4928   0.555E-01    0.139E-01
DAV:   2    -0.138044144310E+04   -0.14361E-03   -0.42769E-03  5184   0.497E-02    0.845E-02
DAV:   3    -0.138044134307E+04    0.10003E-03   -0.58222E-04  5408   0.174E-02    0.296E-02
DAV:   4    -0.138044134730E+04   -0.42280E-05   -0.98379E-05  5472   0.603E-03    0.112E-02
DAV:   5    -0.138044134621E+04    0.10855E-05   -0.16724E-05  4992   0.275E-03    0.385E-03
DAV:   6    -0.138044134670E+04   -0.48550E-06   -0.17802E-06  4640   0.942E-04    0.170E-03
DAV:   7    -0.138044134713E+04   -0.43085E-06   -0.27751E-07  4544   0.436E-04    0.523E-04
DAV:   8    -0.138044134749E+04   -0.35780E-06   -0.71670E-08  4480   0.211E-04    0.236E-04
DAV:   9    -0.138044134780E+04   -0.30798E-06   -0.14863E-08  3568   0.107E-04    0.149E-04
DAV:  10    -0.138044134815E+04   -0.35220E-06   -0.14220E-08  3872   0.905E-05    0.881E-05
DAV:  11    -0.138044134841E+04   -0.26701E-06   -0.86711E-09  3488   0.770E-05    0.558E-05
DAV:  12    -0.138044134864E+04   -0.22870E-06   -0.83195E-09  3488   0.678E-05    0.414E-05
DAV:  13    -0.138044134878E+04   -0.13945E-06   -0.43325E-09  3104   0.606E-05    0.266E-05
DAV:  14    -0.138044134886E+04   -0.80880E-07   -0.34552E-09  3104   0.598E-05    0.176E-05
DAV:  15    -0.138044134890E+04   -0.37544E-07   -0.18126E-09  3072   0.477E-05    0.122E-05
DAV:  16    -0.138044134892E+04   -0.19587E-07   -0.99560E-10  3072   0.297E-05    0.870E-06
DAV:  17    -0.138044134893E+04   -0.95897E-08   -0.41039E-10  3072   0.227E-05
  63 F= -.13998960E+04 E0= -.13998960E+04  d E =0.402022E-03  mag=     0.0000
       N       E                     dE             d eps       ncg     rms          rms(c)
DAV:   1    -0.138044141863E+04   -0.69708E-04   -0.48960E-01  4928   0.573E-01    0.138E-01
DAV:   2    -0.138044151866E+04   -0.10003E-03   -0.37056E-03  4992   0.446E-02    0.871E-02
DAV:   3    -0.138044141389E+04    0.10477E-03   -0.55251E-04  5376   0.180E-02    0.234E-02
DAV:   4    -0.138044142148E+04   -0.75948E-05   -0.12067E-04  5504   0.568E-03    0.992E-03
DAV:   5    -0.138044142025E+04    0.12322E-05   -0.14525E-05  4896   0.267E-03    0.416E-03
DAV:   6    -0.138044142118E+04   -0.93429E-06   -0.15037E-06  5024   0.917E-04    0.187E-03
DAV:   7    -0.138044142247E+04   -0.12817E-05   -0.49733E-07  4416   0.649E-04    0.539E-04
DAV:   8    -0.138044142360E+04   -0.11379E-05   -0.13785E-07  5152   0.293E-04    0.476E-04
DAV:   9    -0.138044142466E+04   -0.10587E-05   -0.29723E-08  4032   0.149E-04    0.256E-04
DAV:  10    -0.138044142640E+04   -0.17426E-05   -0.82229E-08  4160   0.164E-04    0.211E-04
DAV:  11    -0.138044142719E+04   -0.78356E-06   -0.25126E-08  4160   0.114E-04    0.145E-04
DAV:  12    -0.138044142786E+04   -0.67512E-06   -0.19223E-08  3840   0.914E-05    0.752E-05
DAV:  13    -0.138044142834E+04   -0.47431E-06   -0.14857E-08  3872   0.851E-05    0.503E-05
DAV:  14    -0.138044142850E+04   -0.16204E-06   -0.36857E-09  3136   0.745E-05    0.364E-05
DAV:  15    -0.138044142859E+04   -0.90877E-07   -0.26580E-09  3072   0.685E-05    0.216E-05
DAV:  16    -0.138044142865E+04   -0.58149E-07   -0.19319E-09  3072   0.516E-05    0.131E-05
DAV:  17    -0.138044142867E+04   -0.19616E-07   -0.80169E-10  3072   0.348E-05    0.995E-06
DAV:  18    -0.138044142868E+04   -0.98371E-08   -0.37515E-10  3072   0.256E-05
  64 F= -.13998959E+04 E0= -.13998959E+04  d E =0.115021E-03  mag=    -0.0000
       N       E                     dE             d eps       ncg     rms          rms(c)
DAV:   1    -0.138044184409E+04   -0.41542E-03   -0.48800E-01  4992   0.586E-01    0.129E-01
DAV:   2    -0.138044211341E+04   -0.26932E-03   -0.50833E-03  5248   0.532E-02    0.879E-02
DAV:   3    -0.138044199723E+04    0.11618E-03   -0.57913E-04  5376   0.182E-02    0.299E-02
DAV:   4    -0.138044200516E+04   -0.79375E-05   -0.14191E-04  5600   0.660E-03    0.128E-02
DAV:   5    -0.138044200365E+04    0.15160E-05   -0.19553E-05  5120   0.298E-03    0.512E-03
DAV:   6    -0.138044200456E+04   -0.91302E-06   -0.18645E-06  4832   0.103E-03    0.202E-03
DAV:   7    -0.138044200554E+04   -0.97712E-06   -0.70598E-07  4416   0.659E-04    0.675E-04
DAV:   8    -0.138044200642E+04   -0.88429E-06   -0.14455E-07  4672   0.287E-04    0.383E-04
DAV:   9    -0.138044200707E+04   -0.65063E-06   -0.26019E-08  4144   0.136E-04    0.220E-04
DAV:  10    -0.138044200821E+04   -0.11360E-05   -0.61707E-08  4224   0.163E-04    0.150E-04
DAV:  11    -0.138044200868E+04   -0.46741E-06   -0.17829E-08  4032   0.103E-04    0.108E-04
DAV:  12    -0.138044200914E+04   -0.46378E-06   -0.16607E-08  3712   0.893E-05    0.671E-05
DAV:  13    -0.138044200944E+04   -0.29917E-06   -0.10318E-08  3584   0.734E-05    0.537E-05
DAV:  14    -0.138044200959E+04   -0.15170E-06   -0.39888E-09  3232   0.560E-05    0.346E-05
DAV:  15    -0.138044200966E+04   -0.70431E-07   -0.16780E-09  3072   0.405E-05    0.217E-05
DAV:  16    -0.138044200973E+04   -0.73327E-07   -0.18736E-09  3040   0.400E-05    0.136E-05
DAV:  17    -0.138044200976E+04   -0.26659E-07   -0.90877E-10  3072   0.369E-05    0.126E-05
DAV:  18    -0.138044200977E+04   -0.88767E-08   -0.35001E-10  3072   0.257E-05
  65 F= -.13998967E+04 E0= -.13998967E+04  d E =-.792031E-03  mag=     0.0000
       N       E                     dE             d eps       ncg     rms          rms(c)
DAV:   1    -0.138044141952E+04    0.59024E-03   -0.48265E-01  4992   0.562E-01    0.138E-01
DAV:   2    -0.138044159377E+04   -0.17426E-03   -0.46128E-03  5248   0.504E-02    0.842E-02
DAV:   3    -0.138044149876E+04    0.95015E-04   -0.64771E-04  5440   0.174E-02    0.300E-02
DAV:   4    -0.138044150143E+04   -0.26702E-05   -0.10679E-04  5888   0.658E-03    0.122E-02
DAV:   5    -0.138044150126E+04    0.17080E-06   -0.12510E-05  5856   0.239E-03    0.512E-03
DAV:   6    -0.138044150218E+04   -0.92060E-06   -0.13936E-06  5344   0.116E-03    0.182E-03
DAV:   7    -0.138044150301E+04   -0.83625E-06   -0.34822E-07  5280   0.577E-04    0.636E-04
DAV:   8    -0.138044150375E+04   -0.73864E-06   -0.75084E-08  4480   0.248E-04    0.366E-04
DAV:   9    -0.138044150439E+04   -0.63468E-06   -0.21687E-08  4096   0.153E-04    0.207E-04
DAV:  10    -0.138044150531E+04   -0.91748E-06   -0.34892E-08  3968   0.136E-04    0.136E-04
DAV:  11    -0.138044150584E+04   -0.53309E-06   -0.17349E-08  3904   0.981E-05    0.102E-04
DAV:  12    -0.138044150634E+04   -0.50220E-06   -0.17696E-08  3936   0.935E-05    0.633E-05
DAV:  13    -0.138044150663E+04   -0.29091E-06   -0.92861E-09  3392   0.892E-05    0.427E-05
DAV:  14    -0.138044150677E+04   -0.13931E-06   -0.56783E-09  3104   0.895E-05    0.318E-05
DAV:  15    -0.138044150683E+04   -0.55064E-07   -0.29402E-09  3072   0.717E-05    0.234E-05
DAV:  16    -0.138044150688E+04   -0.57102E-07   -0.21739E-09  3040   0.515E-05    0.187E-05
DAV:  17    -0.138044150691E+04   -0.22323E-07   -0.10697E-09  3040   0.380E-05    0.188E-05
DAV:  18    -0.138044150691E+04   -0.59226E-08   -0.33762E-10  3040   0.224E-05
  66 F= -.13998963E+04 E0= -.13998963E+04  d E =0.414200E-03  mag=     0.0000
       N       E                     dE             d eps       ncg     rms          rms(c)
DAV:   1    -0.138044167789E+04   -0.17098E-03   -0.48724E-01  4992   0.570E-01    0.137E-01
DAV:   2    -0.138044176782E+04   -0.89939E-04   -0.36778E-03  5280   0.454E-02    0.861E-02
DAV:   3    -0.138044167178E+04    0.96041E-04   -0.58151E-04  5440   0.183E-02    0.227E-02
DAV:   4    -0.138044168016E+04   -0.83730E-05   -0.12363E-04  5920   0.559E-03    0.103E-02
DAV:   5    -0.138044167922E+04    0.93947E-06   -0.12244E-05  5536   0.248E-03    0.487E-03
DAV:   6    -0.138044167958E+04   -0.35936E-06   -0.15152E-06  5760   0.121E-03    0.193E-03
DAV:   7    -0.138044167969E+04   -0.11732E-06   -0.40984E-07  4928   0.622E-04    0.569E-04
DAV:   8    -0.138044167995E+04   -0.25443E-06   -0.13613E-07  5344   0.320E-04    0.407E-04
DAV:   9    -0.138044168013E+04   -0.18305E-06   -0.18440E-08  3808   0.163E-04    0.225E-04
DAV:  10    -0.138044168042E+04   -0.29331E-06   -0.19737E-08  4000   0.161E-04    0.119E-04
DAV:  11    -0.138044168060E+04   -0.17392E-06   -0.62967E-09  3200   0.946E-05    0.975E-05
DAV:  12    -0.138044168077E+04   -0.17515E-06   -0.69057E-09  3328   0.773E-05    0.599E-05
DAV:  13    -0.138044168090E+04   -0.12737E-06   -0.38619E-09  3104   0.600E-05    0.367E-05
DAV:  14    -0.138044168101E+04   -0.11259E-06   -0.58436E-09  3296   0.601E-05    0.346E-05
DAV:  15    -0.138044168105E+04   -0.31971E-07   -0.13334E-09  3072   0.421E-05    0.239E-05
DAV:  16    -0.138044168109E+04   -0.40018E-07   -0.15026E-09  3072   0.405E-05    0.208E-05
DAV:  17    -0.138044168110E+04   -0.17433E-07   -0.72021E-10  3072   0.347E-05    0.179E-05
DAV:  18    -0.138044168111E+04   -0.64465E-08   -0.30161E-10  3072   0.252E-05
  67 F= -.13998961E+04 E0= -.13998961E+04  d E =0.166136E-03  mag=    -0.0000
       N       E                     dE             d eps       ncg     rms          rms(c)
DAV:   1    -0.138044183724E+04   -0.15613E-03   -0.49640E-01  5056   0.560E-01    0.143E-01
DAV:   2    -0.138044207477E+04   -0.23754E-03   -0.63374E-03  5440   0.502E-02    0.959E-02
DAV:   3    -0.138044189739E+04    0.17738E-03   -0.77171E-04  5440   0.218E-02    0.293E-02
DAV:   4    -0.138044191075E+04   -0.13361E-04   -0.20551E-04  5984   0.815E-03    0.113E-02
DAV:   5    -0.138044191032E+04    0.43106E-06   -0.17956E-05  5824   0.327E-03    0.550E-03
DAV:   6    -0.138044191091E+04   -0.58912E-06   -0.23179E-06  5888   0.142E-03    0.219E-03
DAV:   7    -0.138044191152E+04   -0.60741E-06   -0.37182E-07  5632   0.708E-04    0.904E-04
DAV:   8    -0.138044191215E+04   -0.62879E-06   -0.14317E-07  5472   0.462E-04    0.418E-04
DAV:   9    -0.138044191267E+04   -0.52279E-06   -0.36351E-08  4192   0.232E-04    0.283E-04
DAV:  10    -0.138044191336E+04   -0.68793E-06   -0.37988E-08  4256   0.234E-04    0.147E-04
DAV:  11    -0.138044191382E+04   -0.46135E-06   -0.25318E-08  4192   0.182E-04    0.100E-04
DAV:  12    -0.138044191417E+04   -0.35435E-06   -0.14090E-08  3808   0.123E-04    0.703E-05
DAV:  13    -0.138044191442E+04   -0.24261E-06   -0.74832E-09  3360   0.862E-05    0.413E-05
DAV:  14    -0.138044191457E+04   -0.15032E-06   -0.50002E-09  3072   0.762E-05    0.272E-05
DAV:  15    -0.138044191464E+04   -0.76659E-07   -0.34818E-09  3072   0.709E-05    0.221E-05
DAV:  16    -0.138044191470E+04   -0.52765E-07   -0.25466E-09  3072   0.574E-05    0.146E-05
DAV:  17    -0.138044191472E+04   -0.26266E-07   -0.13939E-09  3072   0.390E-05    0.122E-05
DAV:  18    -0.138044191473E+04   -0.11903E-07   -0.59919E-10  3072   0.261E-05    0.855E-06
DAV:  19    -0.138044191474E+04   -0.81345E-08   -0.28303E-10  2976   0.201E-05
  68 F= -.13998967E+04 E0= -.13998967E+04  d E =-.547745E-03  mag=    -0.0000
       N       E                     dE             d eps       ncg     rms          rms(c)
DAV:   1    -0.138044205984E+04   -0.14511E-03   -0.48663E-01  5056   0.508E-01    0.147E-01
DAV:   2    -0.138044212256E+04   -0.62719E-04   -0.54337E-03  5440   0.478E-02    0.846E-02
DAV:   3    -0.138044198146E+04    0.14110E-03   -0.87821E-04  5472   0.229E-02    0.294E-02
DAV:   4    -0.138044198608E+04   -0.46209E-05   -0.16558E-04  5664   0.864E-03    0.134E-02
DAV:   5    -0.138044198374E+04    0.23423E-05   -0.18094E-05  5888   0.352E-03    0.576E-03
DAV:   6    -0.138044198373E+04    0.37253E-08   -0.23630E-06  5920   0.163E-03    0.223E-03
DAV:   7    -0.138044198430E+04   -0.56159E-06   -0.39753E-07  5792   0.822E-04    0.104E-03
DAV:   8    -0.138044198530E+04   -0.10049E-05   -0.20072E-07  5568   0.602E-04    0.562E-04
DAV:   9    -0.138044198638E+04   -0.10817E-05   -0.75273E-08  4576   0.388E-04    0.368E-04
DAV:  10    -0.138044198771E+04   -0.13294E-05   -0.69847E-08  4416   0.341E-04    0.215E-04
DAV:  11    -0.138044198882E+04   -0.11051E-05   -0.72601E-08  4368   0.299E-04    0.138E-04
DAV:  12    -0.138044198952E+04   -0.70641E-06   -0.35296E-08  4224   0.169E-04    0.107E-04
DAV:  13    -0.138044198990E+04   -0.37432E-06   -0.82143E-09  3360   0.776E-05    0.641E-05
DAV:  14    -0.138044199022E+04   -0.32056E-06   -0.10154E-08  3712   0.705E-05    0.414E-05
DAV:  15    -0.138044199037E+04   -0.15130E-06   -0.28683E-09  3072   0.591E-05    0.278E-05
DAV:  16    -0.138044199049E+04   -0.11786E-06   -0.34792E-09  3040   0.587E-05    0.221E-05
DAV:  17    -0.138044199052E+04   -0.34168E-07   -0.12634E-09  3072   0.463E-05    0.169E-05
DAV:  18    -0.138044199056E+04   -0.33499E-07   -0.95417E-10  3040   0.342E-05    0.144E-05
DAV:  19    -0.138044199057E+04   -0.11496E-07   -0.32631E-10  3072   0.250E-05    0.135E-05
DAV:  20    -0.138044199057E+04   -0.41618E-08   -0.58856E-11  2784   0.154E-05
  69 F= -.13998967E+04 E0= -.13998967E+04  d E =0.174622E-05  mag=     0.0000
       N       E                     dE             d eps       ncg     rms          rms(c)
DAV:   1    -0.138044247270E+04   -0.48213E-03   -0.49724E-01  5056   0.536E-01    0.153E-01
DAV:   2    -0.138044244831E+04    0.24387E-04   -0.52832E-03  5536   0.469E-02    0.950E-02
DAV:   3    -0.138044224507E+04    0.20324E-03   -0.10491E-03  5568   0.265E-02    0.256E-02
DAV:   4    -0.138044226371E+04   -0.18637E-04   -0.22756E-04  5760   0.831E-03    0.141E-02
DAV:   5    -0.138044226170E+04    0.20012E-05   -0.25255E-05  5696   0.474E-03    0.554E-03
DAV:   6    -0.138044226204E+04   -0.33645E-06   -0.25338E-06  5984   0.160E-03    0.267E-03
DAV:   7    -0.138044226255E+04   -0.50437E-06   -0.57120E-07  5552   0.912E-04    0.973E-04
DAV:   8    -0.138044226315E+04   -0.60105E-06   -0.18717E-07  5760   0.583E-04    0.537E-04
DAV:   9    -0.138044226383E+04   -0.68615E-06   -0.45051E-08  4448   0.274E-04    0.357E-04
DAV:  10    -0.138044226473E+04   -0.89260E-06   -0.55965E-08  4368   0.291E-04    0.180E-04
DAV:  11    -0.138044226538E+04   -0.65609E-06   -0.42234E-08  4336   0.235E-04    0.138E-04
DAV:  12    -0.138044226593E+04   -0.54995E-06   -0.25194E-08  4016   0.158E-04    0.935E-05
DAV:  13    -0.138044226628E+04   -0.35140E-06   -0.14075E-08  3824   0.953E-05    0.586E-05
DAV:  14    -0.138044226651E+04   -0.22636E-06   -0.77707E-09  3296   0.645E-05    0.384E-05
DAV:  15    -0.138044226663E+04   -0.11813E-06   -0.35177E-09  3072   0.521E-05    0.277E-05
DAV:  16    -0.138044226670E+04   -0.67841E-07   -0.24386E-09  3104   0.469E-05    0.231E-05
DAV:  17    -0.138044226673E+04   -0.36103E-07   -0.12221E-09  3072   0.352E-05    0.178E-05
DAV:  18    -0.138044226676E+04   -0.23618E-07   -0.69158E-10  3072   0.274E-05    0.130E-05
DAV:  19    -0.138044226676E+04   -0.85856E-08   -0.21818E-10  3072   0.231E-05
  70 F= -.13998968E+04 E0= -.13998968E+04  d E =-.838133E-04  mag=    -0.0000
