 vasp.5.4.4.18Apr17-6-g9f103f2a35 (build Mar 06 2019 14:20:02) complex          
  
 executed on             LinuxIFC date 2021.07.10  23:45:08
 running on  128 total cores
 distrk:  each k-point on  128 cores,    1 groups
 distr:  one band on NCORES_PER_BAND=  16 cores,    8 groups


--------------------------------------------------------------------------------------------------------


 INCAR:
 POTCAR:    PAW_PBE Zr_sv 04Jan2005               
 POTCAR:    PAW_PBE O 08Apr2002                   
 POTCAR:    PAW_PBE H 15Jun2001                   
 POTCAR:    PAW_PBE Zr_sv 04Jan2005               
   VRHFIN =Zr: 4s4p5s4d                                                         
   LEXCH  = PE                                                                  
   EATOM  =  1284.2219 eV,   94.3876 Ry                                         
                                                                                
   TITEL  = PAW_PBE Zr_sv 04Jan2005                                             
   LULTRA =        F    use ultrasoft PP ?                                      
   IUNSCR =        1    unscreen: 0-lin 1-nonlin 2-no                           
   RPACOR =    2.200    partial core radius                                     
   POMASS =   91.224; ZVAL   =   12.000    mass and valenz                      
   RCORE  =    2.500    outmost cutoff radius                                   
   RWIGS  =    3.070; RWIGS  =    1.625    wigner-seitz radius (au A)           
   ENMAX  =  229.898; ENMIN  =  172.424 eV                                      
   ICORE  =        3    local potential                                         
   LCOR   =        T    correct aug charges                                     
   LPAW   =        T    paw PP                                                  
   EAUG   =  461.257                                                            
   DEXC   =    0.000                                                            
   RMAX   =    2.561    core radius for proj-oper                               
   RAUG   =    1.300    factor for augmentation sphere                          
   RDEP   =    2.597    radius for radial grids                                 
   RDEPT  =    2.007    core radius for aug-charge                              
                                                                                
   Atomic configuration                                                         
   11 entries                                                                   
     n  l   j            E        occ.                                          
     1  0  0.50    -17820.0161   2.0000                                         
     2  0  0.50     -2467.0882   2.0000                                         
     2  1  1.50     -2199.6095   6.0000                                         
     3  0  0.50      -402.4863   2.0000                                         
     3  1  1.50      -315.3675   6.0000                                         
     3  2  2.50      -172.4472  10.0000                                         
     4  0  0.50       -52.4146   2.0000                                         
     5  0  0.50        -3.8421   1.0000                                         
     4  1  1.50       -30.5054   6.0000                                         
     4  2  2.50        -2.3341   3.0000                                         
     4  3  2.50        -1.3606   0.0000                                         
   Description                                                                  
     l       E           TYP  RCUT    TYP  RCUT                                 
     0    -52.4145962     23  2.200                                             
     0     -3.8421270     23  2.500                                             
     1    -30.5053914     23  2.200                                             
     1     20.4087390     23  2.200                                             
     2     -2.3340816     23  2.500                                             
     2     -0.6120942     23  2.500                                             
     3     -4.0817478     23  2.500                                             
  local pseudopotential read in
  partial core-charges read in
  partial kinetic energy density read in
  atomic valenz-charges read in
  non local Contribution for L=           0  read in
    real space projection operators read in
  non local Contribution for L=           0  read in
    real space projection operators read in
  non local Contribution for L=           1  read in
    real space projection operators read in
  non local Contribution for L=           1  read in
    real space projection operators read in
  non local Contribution for L=           2  read in
    real space projection operators read in
  non local Contribution for L=           2  read in
    real space projection operators read in
    PAW grid and wavefunctions read in
 
   number of l-projection  operators is LMAX  =           6
   number of lm-projection operators is LMMAX =          18
 
 POTCAR:    PAW_PBE O 08Apr2002                   
   VRHFIN =O: s2p4                                                              
   LEXCH  = PE                                                                  
   EATOM  =   432.3788 eV,   31.7789 Ry                                         
                                                                                
   TITEL  = PAW_PBE O 08Apr2002                                                 
   LULTRA =        F    use ultrasoft PP ?                                      
   IUNSCR =        1    unscreen: 0-lin 1-nonlin 2-no                           
   RPACOR =    1.200    partial core radius                                     
   POMASS =   16.000; ZVAL   =    6.000    mass and valenz                      
   RCORE  =    1.520    outmost cutoff radius                                   
   RWIGS  =    1.550; RWIGS  =    0.820    wigner-seitz radius (au A)           
   ENMAX  =  400.000; ENMIN  =  300.000 eV                                      
   ICORE  =        2    local potential                                         
   LCOR   =        T    correct aug charges                                     
   LPAW   =        T    paw PP                                                  
   EAUG   =  605.392                                                            
   DEXC   =    0.000                                                            
   RMAX   =    1.553    core radius for proj-oper                               
   RAUG   =    1.300    factor for augmentation sphere                          
   RDEP   =    1.550    radius for radial grids                                 
   RDEPT  =    1.329    core radius for aug-charge                              
                                                                                
   Atomic configuration                                                         
    4 entries                                                                   
     n  l   j            E        occ.                                          
     1  0  0.50      -514.6923   2.0000                                         
     2  0  0.50       -23.9615   2.0000                                         
     2  1  0.50        -9.0305   4.0000                                         
     3  2  1.50        -9.5241   0.0000                                         
   Description                                                                  
     l       E           TYP  RCUT    TYP  RCUT                                 
     0    -23.9615318     23  1.200                                             
     0     -9.5240782     23  1.200                                             
     1     -9.0304911     23  1.520                                             
     1      8.1634956     23  1.520                                             
     2     -9.5240782      7  1.500                                             
  local pseudopotential read in
  partial core-charges read in
  partial kinetic energy density read in
  kinetic energy density of atom read in
  atomic valenz-charges read in
  non local Contribution for L=           0  read in
    real space projection operators read in
  non local Contribution for L=           0  read in
    real space projection operators read in
  non local Contribution for L=           1  read in
    real space projection operators read in
  non local Contribution for L=           1  read in
    real space projection operators read in
    PAW grid and wavefunctions read in
 
   number of l-projection  operators is LMAX  =           4
   number of lm-projection operators is LMMAX =           8
 
 POTCAR:    PAW_PBE H 15Jun2001                   
   VRHFIN =H: ultrasoft test                                                    
   LEXCH  = PE                                                                  
   EATOM  =    12.4884 eV,    0.9179 Ry                                         
                                                                                
   TITEL  = PAW_PBE H 15Jun2001                                                 
   LULTRA =        F    use ultrasoft PP ?                                      
   IUNSCR =        0    unscreen: 0-lin 1-nonlin 2-no                           
   RPACOR =    0.000    partial core radius                                     
   POMASS =    1.000; ZVAL   =    1.000    mass and valenz                      
   RCORE  =    1.100    outmost cutoff radius                                   
   RWIGS  =    0.700; RWIGS  =    0.370    wigner-seitz radius (au A)           
   ENMAX  =  250.000; ENMIN  =  200.000 eV                                      
   RCLOC  =    0.701    cutoff for local pot                                    
   LCOR   =        T    correct aug charges                                     
   LPAW   =        T    paw PP                                                  
   EAUG   =  400.000                                                            
   RMAX   =    1.123    core radius for proj-oper                               
   RAUG   =    1.200    factor for augmentation sphere                          
   RDEP   =    1.112    radius for radial grids                                 
   RDEPT  =    0.926    core radius for aug-charge                              
                                                                                
   Atomic configuration                                                         
    2 entries                                                                   
     n  l   j            E        occ.                                          
     1  0  0.50        -6.4927   1.0000                                         
     2  1  0.50        -3.4015   0.0000                                         
   Description                                                                  
     l       E           TYP  RCUT    TYP  RCUT                                 
     0     -6.4927494     23  1.100                                             
     0      6.8029130     23  1.100                                             
     1     -4.0817478     23  1.100                                             
  local pseudopotential read in
  atomic valenz-charges read in
  non local Contribution for L=           0  read in
    real space projection operators read in
  non local Contribution for L=           0  read in
    real space projection operators read in
  non local Contribution for L=           1  read in
    real space projection operators read in
    PAW grid and wavefunctions read in
 
   number of l-projection  operators is LMAX  =           3
   number of lm-projection operators is LMMAX =           5
 
 Optimization of the real space projectors (new method)

 maximal supplied QI-value         = 15.12
 optimisation between [QCUT,QGAM] = [ 11.34, 22.83] = [ 36.00,145.93] Ry 
 Optimized for a Real-space Cutoff    1.47 Angstroem

   l    n(q)    QCUT    max X(q) W(low)/X(q) W(high)/X(q)  e(spline) 
   0     10    11.338    12.107    0.38E-04    0.13E-04    0.27E-07
   0     10    11.338     9.948    0.69E-04    0.30E-04    0.38E-07
   1     10    11.338     3.563    0.26E-04    0.18E-04    0.40E-07
   1     10    11.338     4.524    0.25E-03    0.39E-04    0.44E-06
   2      9    11.338    87.261    0.26E-03    0.91E-05    0.26E-06
   2      9    11.338    70.950    0.25E-03    0.91E-05    0.25E-06
 Optimization of the real space projectors (new method)

 maximal supplied QI-value         = 24.76
 optimisation between [QCUT,QGAM] = [ 11.39, 22.77] = [ 36.31,145.25] Ry 
 Optimized for a Real-space Cutoff    1.00 Angstroem

   l    n(q)    QCUT    max X(q) W(low)/X(q) W(high)/X(q)  e(spline) 
   0      7    11.387    20.381    0.39E-03    0.13E-02    0.15E-06
   0      7    11.387    15.268    0.42E-03    0.14E-02    0.17E-06
   1      6    11.387     5.964    0.41E-03    0.11E-02    0.17E-06
   1      6    11.387     5.382    0.39E-03    0.87E-03    0.15E-06
 Optimization of the real space projectors (new method)

 maximal supplied QI-value         = 34.20
 optimisation between [QCUT,QGAM] = [ 11.29, 22.57] = [ 35.68,142.71] Ry 
 Optimized for a Real-space Cutoff    1.16 Angstroem

   l    n(q)    QCUT    max X(q) W(low)/X(q) W(high)/X(q)  e(spline) 
   0      8    11.287    19.460    0.40E-03    0.73E-03    0.16E-06
   0      8    11.287    12.209    0.38E-03    0.70E-03    0.15E-06
   1      7    11.287     4.655    0.22E-03    0.25E-04    0.22E-06
  PAW_PBE Zr_sv 04Jan2005               :
 energy of atom  1       EATOM=-1284.2219
 kinetic energy error for atom=    0.0049 (will be added to EATOM!!)
  PAW_PBE O 08Apr2002                   :
 energy of atom  2       EATOM= -432.3788
 kinetic energy error for atom=    0.0224 (will be added to EATOM!!)
  PAW_PBE H 15Jun2001                   :
 energy of atom  3       EATOM=  -12.4884
 kinetic energy error for atom=    0.0020 (will be added to EATOM!!)
 
 
 POSCAR: CONTCAR-ZrO2H2_10                       
  positions in direct lattice
  velocities in cartesian coordinates
  No initial velocities read in
 exchange correlation table for  LEXCH =        8
   RHO(1)=    0.500       N(1)  =     2000
   RHO(2)=  100.500       N(2)  =     4000
 


--------------------------------------------------------------------------------------------------------


 ion  position               nearest neighbor table
   1  0.088  0.321  0.038-  78 2.10  62 2.10  50 2.18  74 2.19  61 2.26  54 2.30  16 3.37   6 3.50
                            12 3.52  13 3.65
   2  0.338  0.821  0.038-  79 2.10  63 2.10  51 2.18  75 2.19  58 2.26  55 2.30  13 3.37   7 3.50
                             9 3.52  14 3.65
   3  0.588  0.321  0.038-  80 2.10  64 2.10  52 2.18  76 2.19  59 2.26  56 2.30  14 3.37   8 3.50
                            10 3.52  15 3.65
   4  0.838  0.821  0.038-  81 2.10  65 2.10  53 2.18  77 2.19  60 2.26  57 2.30  15 3.37   5 3.50
                            11 3.52  16 3.65
   5  0.070  0.834  0.049-  82 2.07  66 2.10  65 2.18  58 2.19  57 2.22  70 2.30  12 3.37  17 3.47
                             4 3.50  16 3.52   9 3.65
   6  0.320  0.334  0.049-  83 2.06  67 2.10  62 2.18  59 2.19  54 2.22  71 2.30   9 3.37  18 3.48
                             1 3.50  13 3.52  10 3.65
   7  0.570  0.834  0.049-  84 2.06  68 2.10  63 2.18  60 2.19  55 2.22  72 2.30  10 3.37  19 3.48
                             2 3.50  14 3.52  11 3.65
   8  0.820  0.334  0.049-  85 2.08  69 2.10  64 2.18  61 2.19  56 2.22  73 2.30  11 3.37   3 3.50
                            20 3.51  15 3.52  12 3.65
   9  0.238  0.068  0.057-  62 2.10  86 2.16  67 2.18  70 2.19  75 2.22  58 2.30   6 3.37  17 3.48
                            14 3.50  22 3.52   2 3.52   5 3.65
  10  0.488  0.568  0.057-  63 2.10  87 2.18  68 2.18  71 2.19  76 2.22  59 2.30   7 3.37  18 3.48
                            15 3.50   3 3.52  23 3.53   6 3.65
  11  0.738  0.068  0.057-  64 2.10  69 2.18  88 2.18  72 2.19  77 2.22  60 2.30   8 3.37  19 3.47
                            16 3.50   4 3.52  24 3.52   7 3.65
  12  0.988  0.568  0.057-  65 2.10  66 2.18  89 2.18  73 2.19  74 2.22  61 2.30   5 3.37  13 3.50
                             1 3.52  21 3.53  20 3.53   8 3.65
  13  0.220  0.581  0.068-  51 2.10  66 2.10  79 2.18  54 2.19  71 2.26  90 2.26  74 2.30   2 3.37
                            21 3.49  26 3.50  12 3.50  18 3.50   6 3.52   1 3.65
  14  0.470  0.081  0.068-  52 2.10  67 2.10  80 2.18  55 2.19  72 2.26  91 2.27  75 2.30   3 3.37
                            27 3.48  22 3.49   9 3.50  19 3.51   7 3.52   2 3.65
  15  0.720  0.581  0.068-  53 2.10  68 2.10  81 2.18  56 2.19  73 2.26  92 2.26  76 2.30   4 3.37
                            23 3.49  28 3.50  10 3.50   8 3.52  20 3.53   3 3.65
  16  0.970  0.081  0.068-  50 2.10  69 2.10  78 2.18  57 2.19  70 2.26  93 2.27  77 2.30   1 3.37
                            24 3.50  11 3.50  17 3.50  25 3.50   5 3.52   4 3.65
  17  0.106  0.983  0.171-  94 2.09 110 2.13  82 2.16  70 2.19 106 2.20  93 2.23  86 2.30  32 3.39
                             5 3.47   9 3.48  16 3.50  22 3.52  25 3.54  29 3.67
  18  0.356  0.484  0.171-  95 2.09 111 2.14  83 2.16  71 2.19 107 2.19  90 2.23  87 2.30  29 3.37
                             6 3.48  10 3.48  13 3.50  23 3.52  26 3.53  30 3.65
  19  0.608  0.984  0.171-  96 2.09 112 2.15  84 2.18  72 2.19 108 2.20  91 2.23  88 2.28  30 3.38
                            11 3.47   7 3.48  24 3.50  14 3.51  27 3.52  31 3.70
  20  0.855  0.483  0.173-  97 2.10 113 2.11  85 2.18 109 2.20  92 2.23  73 2.24  89 2.32  31 3.32
                            28 3.50   8 3.51  12 3.53  21 3.53  15 3.53  32 3.65
  21  0.089  0.495  0.183- 114 2.09  98 2.11  97 2.17  90 2.18  74 2.24  89 2.27 102 2.29  25 3.37
                            13 3.49  32 3.51  12 3.53  20 3.53  26 3.63  33 3.64
  22  0.339  0.995  0.182- 115 2.10  99 2.11  94 2.17  91 2.19  75 2.23 103 2.26  86 2.28  26 3.38
                            14 3.49  29 3.51   9 3.52  17 3.52  34 3.61  27 3.62
  23  0.589  0.493  0.182- 100 2.08 116 2.12  95 2.17  92 2.18  76 2.23  87 2.29 104 2.31  27 3.37
                            15 3.49  35 3.51  18 3.52  10 3.53  30 3.56  28 3.69
  24  0.839  0.996  0.183- 117 2.10 101 2.11  96 2.18  93 2.18  77 2.25  88 2.27 105 2.28  28 3.37
                            16 3.50  19 3.50  11 3.52  31 3.53  36 3.62  25 3.64
  25  0.005  0.230  0.191-  78 2.10  97 2.10 121 2.17  98 2.19 105 2.21 106 2.29  93 2.30  21 3.37
                            37 3.45  16 3.50  17 3.54  29 3.55  24 3.64  36 3.65
  26  0.253  0.730  0.191-  79 2.10  94 2.10 102 2.18  99 2.20 118 2.20 107 2.29  90 2.29  22 3.38
                            38 3.46  13 3.50  18 3.53  30 3.54  21 3.63  33 3.65
  27  0.504  0.229  0.191-  80 2.09  95 2.11 119 2.18 100 2.19 103 2.19  91 2.29 108 2.29  23 3.37
                            39 3.46  14 3.48  19 3.52  31 3.59  22 3.62  34 3.66
  28  0.758  0.730  0.191-  81 2.08  96 2.11 101 2.16 120 2.22 104 2.23 109 2.25  92 2.30  24 3.37
                            15 3.50  32 3.50  35 3.50  20 3.50  40 3.54  23 3.69
  29  0.240  0.242  0.201-  98 2.10  83 2.10 122 2.19 103 2.21 111 2.21  86 2.23 106 2.28  18 3.37
                            37 3.41  42 3.50  22 3.51  25 3.55  34 3.64  17 3.67
  30  0.488  0.743  0.200-  99 2.08  84 2.09 112 2.19 123 2.21  87 2.22 104 2.26 107 2.29  19 3.38
                            38 3.44  43 3.49  35 3.51  26 3.54  23 3.56  18 3.65
  31  0.741  0.245  0.204-  85 2.11 100 2.12 113 2.12 105 2.21 124 2.24  88 2.29 108 2.31  20 3.32
                            39 3.44  24 3.53  44 3.55  27 3.59  36 3.63  19 3.70
  32  0.989  0.740  0.202- 101 2.11  82 2.13 110 2.19 125 2.21 102 2.21  89 2.22 109 2.27  17 3.39
                            41 3.47  40 3.49  28 3.50  21 3.51  33 3.64  20 3.65
  33  0.123  0.641  0.314- 142 2.02 126 2.16 138 2.17 114 2.20 125 2.25 118 2.37 102 2.42  45 3.23
                            41 3.48  38 3.54  21 3.64  32 3.64  26 3.65  46 3.71
  34  0.372  0.139  0.313- 143 2.02 127 2.14 139 2.19 115 2.20 122 2.24 119 2.35 103 2.43  46 3.22
                            42 3.49  39 3.53  22 3.61  29 3.64  47 3.66  27 3.66
  35  0.624  0.647  0.305- 140 2.14 128 2.16 116 2.19 123 2.20 104 2.20 120 2.25 144 2.27  49 3.30
                            47 3.43  43 3.43  28 3.50  30 3.51  23 3.51  40 3.55  48 3.71
  36  0.875  0.139  0.314- 145 2.03 129 2.12 141 2.13 117 2.22 124 2.29 105 2.39 121 2.43  48 3.22
                            44 3.42  37 3.54  24 3.62  31 3.63  25 3.65  45 3.75
  37  0.110  0.161  0.312- 130 2.09 121 2.14 106 2.16 122 2.16 129 2.16 134 2.17  29 3.41  25 3.45
                            41 3.45  45 3.51  36 3.54  42 3.58
  38  0.358  0.660  0.313- 131 2.10 126 2.15 107 2.16 135 2.16 118 2.16 123 2.17  30 3.44  42 3.44
                            26 3.46  46 3.53  33 3.54  43 3.58
  39  0.606  0.157  0.313- 136 2.10 132 2.11 108 2.15 127 2.15 124 2.18 119 2.21  43 3.43  31 3.44
                            47 3.46  27 3.46  34 3.53  44 3.67
  40  0.859  0.662  0.318- 133 2.11 125 2.18 120 2.20 137 2.21 128 2.25 109 2.26 146 2.27  32 3.49
                            48 3.50  44 3.53  28 3.54  35 3.55  41 3.59  49 3.68
  41  0.027  0.889  0.324- 110 2.05 138 2.14 129 2.15 137 2.18 130 2.20 125 2.30  37 3.45  32 3.47
                            33 3.48  46 3.50  40 3.59
  42  0.276  0.388  0.325- 111 2.06 139 2.13 126 2.14 131 2.24 134 2.26 122 2.29  38 3.44  47 3.49
                            34 3.49  29 3.50  37 3.58
  43  0.525  0.887  0.325- 112 2.06 127 2.14 140 2.15 132 2.18 135 2.27 123 2.29  35 3.43  39 3.43
                            30 3.49  48 3.55  38 3.58
  44  0.782  0.382  0.333- 147 2.09 141 2.11 133 2.16 113 2.22 124 2.26 128 2.27 136 2.57  49 3.26
                            36 3.42  45 3.46  40 3.53  31 3.55  39 3.67
  45  0.011  0.407  0.336- 142 2.03 114 2.07 133 2.16 141 2.23 134 2.29 121 2.30  33 3.23  44 3.46
                            37 3.51  36 3.75
  46  0.259  0.907  0.336- 143 2.02 115 2.07 130 2.15 138 2.27 118 2.29 135 2.30  34 3.22  41 3.50
                            38 3.53  33 3.71
  47  0.507  0.399  0.334- 116 2.07 136 2.14 131 2.16 144 2.21 119 2.22 139 2.23  35 3.43  39 3.46
                            42 3.49  34 3.66  49 3.87
  48  0.760  0.908  0.336- 145 2.01 117 2.05 132 2.17 137 2.25 120 2.31 140 2.36  36 3.22  40 3.50
                            43 3.55  35 3.71
  49  0.697  0.545  0.422- 147 1.92 148 1.94 144 2.08 146 2.15 128 2.33  44 3.26  35 3.30  40 3.68
                            47 3.87
  50  0.024  0.173  0.000-  16 2.10   1 2.18
  51  0.274  0.673  0.000-  13 2.10   2 2.18
  52  0.524  0.173  0.000-  14 2.10   3 2.18
  53  0.774  0.673  0.000-  15 2.10   4 2.18
  54  0.215  0.432  0.016-  13 2.19   6 2.22   1 2.30
  55  0.465  0.932  0.016-  14 2.19   7 2.22   2 2.30
  56  0.715  0.432  0.016-  15 2.19   8 2.22   3 2.30
  57  0.965  0.932  0.016-  16 2.19   5 2.22   4 2.30
  58  0.207  0.891  0.025-   5 2.19   2 2.26   9 2.30
  59  0.457  0.391  0.025-   6 2.19   3 2.26  10 2.30
  60  0.707  0.891  0.025-   7 2.19   4 2.26  11 2.30
  61  0.957  0.391  0.025-   8 2.19   1 2.26  12 2.30
  62  0.197  0.226  0.044-   9 2.10   1 2.10   6 2.18
  63  0.447  0.726  0.044-  10 2.10   2 2.10   7 2.18
  64  0.697  0.226  0.044-  11 2.10   3 2.10   8 2.18
  65  0.947  0.726  0.044-  12 2.10   4 2.10   5 2.18
  66  0.111  0.675  0.062-   5 2.10  13 2.10  12 2.18
  67  0.361  0.175  0.062-   6 2.10  14 2.10   9 2.18
  68  0.611  0.675  0.062-   7 2.10  15 2.10  10 2.18
  69  0.861  0.175  0.062-   8 2.10  16 2.10  11 2.18
  70  0.101  0.010  0.081-  17 2.19   9 2.19  16 2.26   5 2.30
  71  0.351  0.510  0.081-  18 2.19  10 2.19  13 2.26   6 2.30
  72  0.601  0.010  0.081-  19 2.19  11 2.19  14 2.26   7 2.30
  73  0.851  0.510  0.081-  12 2.19  20 2.24  15 2.26   8 2.30
  74  0.093  0.470  0.090-   1 2.19  12 2.22  21 2.24  13 2.30
  75  0.343  0.970  0.090-   2 2.19   9 2.22  22 2.23  14 2.30
  76  0.593  0.470  0.090-   3 2.19  10 2.22  23 2.23  15 2.30
  77  0.843  0.970  0.090-   4 2.19  11 2.22  24 2.25  16 2.30
  78  0.034  0.229  0.106-   1 2.10  25 2.10  16 2.18
  79  0.284  0.729  0.106-   2 2.10  26 2.10  13 2.18
  80  0.534  0.229  0.106-  27 2.09   3 2.10  14 2.18
  81  0.784  0.729  0.106-  28 2.08   4 2.10  15 2.18
  82  0.046  0.833  0.134-   5 2.07  32 2.13  17 2.16
  83  0.297  0.334  0.134-   6 2.06  29 2.10  18 2.16
  84  0.547  0.834  0.134-   7 2.06  30 2.09  19 2.18
  85  0.796  0.333  0.134-   8 2.08  31 2.11  20 2.18
  86  0.231  0.093  0.146-   9 2.16  29 2.23  22 2.28  17 2.30
  87  0.482  0.593  0.147-  10 2.18  30 2.22  23 2.29  18 2.30
  88  0.732  0.094  0.147-  11 2.18  24 2.27  19 2.28  31 2.29
  89  0.982  0.593  0.147-  12 2.18  32 2.22  21 2.27  20 2.32
  90  0.226  0.552  0.161-  21 2.18  18 2.23  13 2.26  26 2.29
  91  0.476  0.051  0.161-  22 2.19  19 2.23  14 2.27  27 2.29
  92  0.725  0.552  0.161-  23 2.18  20 2.23  15 2.26  28 2.30
  93  0.975  0.052  0.161-  24 2.18  17 2.23  16 2.27  25 2.30
  94  0.215  0.890  0.181-  17 2.09  26 2.10  22 2.17
  95  0.465  0.390  0.181-  18 2.09  27 2.11  23 2.17
  96  0.715  0.889  0.181-  19 2.09  28 2.11  24 2.18
  97  0.965  0.391  0.182-  20 2.10  25 2.10  21 2.17
  98  0.130  0.335  0.192-  29 2.10  21 2.11  25 2.19
  99  0.379  0.835  0.193-  30 2.08  22 2.11  26 2.20
 100  0.628  0.335  0.194-  23 2.08  31 2.12  27 2.19
 101  0.880  0.836  0.194-  24 2.11  32 2.11  28 2.16
 102  0.118  0.671  0.215-  26 2.18  32 2.21  21 2.29  33 2.42
 103  0.367  0.169  0.213-  27 2.19  29 2.21  22 2.26  34 2.43
 104  0.619  0.671  0.214-  35 2.20  28 2.23  30 2.26  23 2.31
 105  0.868  0.170  0.216-  25 2.21  31 2.21  24 2.28  36 2.39
 106  0.116  0.130  0.224-  37 2.16  17 2.20  29 2.28  25 2.29
 107  0.364  0.631  0.224-  38 2.16  18 2.19  26 2.29  30 2.29
 108  0.615  0.131  0.225-  39 2.15  19 2.20  27 2.29  31 2.31
 109  0.864  0.632  0.225-  20 2.20  28 2.25  40 2.26  32 2.27
 110  0.047  0.893  0.240-  41 2.05  17 2.13  32 2.19
 111  0.297  0.396  0.241-  42 2.06  18 2.14  29 2.21
 112  0.547  0.893  0.240-  43 2.06  19 2.15  30 2.19
 113  0.796  0.394  0.241-  20 2.11  31 2.12  44 2.22
 114  0.070  0.492  0.269-  45 2.07  21 2.09  33 2.20
 115  0.315  0.992  0.268-  46 2.07  22 2.10  34 2.20
 116  0.562  0.494  0.269-  47 2.07  23 2.12  35 2.19
 117  0.812  0.993  0.269-  48 2.05  24 2.10  36 2.22
 118  0.251  0.750  0.283-  38 2.16  26 2.20  46 2.29  33 2.37
 119  0.497  0.249  0.281-  27 2.18  39 2.21  47 2.22  34 2.35
 120  0.750  0.749  0.283-  40 2.20  28 2.22  35 2.25  48 2.31
 121  0.005  0.251  0.281-  37 2.14  25 2.17  45 2.30  36 2.43
 122  0.246  0.214  0.291-  37 2.16  29 2.19  34 2.24  42 2.29
 123  0.495  0.712  0.291-  38 2.17  35 2.20  30 2.21  43 2.29
 124  0.744  0.214  0.296-  39 2.18  31 2.24  44 2.26  36 2.29
 125  0.995  0.711  0.293-  40 2.18  32 2.21  33 2.25  41 2.30
 126  0.239  0.554  0.330-  42 2.14  38 2.15  33 2.16
 127  0.486  0.052  0.327-  34 2.14  43 2.14  39 2.15
 128  0.732  0.552  0.327-  35 2.16  40 2.25  44 2.27  49 2.33
 129  0.990  0.055  0.328-  36 2.12  41 2.15  37 2.16
 130  0.147  0.004  0.331-  37 2.09  46 2.15  41 2.20
 131  0.399  0.504  0.334-  38 2.10  47 2.16  42 2.24
 132  0.644  1.000  0.334-  39 2.11  48 2.17  43 2.18
 133  0.897  0.500  0.328-  40 2.11  45 2.16  44 2.16
 134  0.138  0.321  0.351-  37 2.17  42 2.26  45 2.29
 135  0.386  0.819  0.351-  38 2.16  43 2.27  46 2.30
 136  0.619  0.311  0.353-  39 2.10  47 2.14  44 2.57
 137  0.890  0.833  0.346-  41 2.18  40 2.21  48 2.25
 138  0.132  0.800  0.356-  41 2.14  33 2.17  46 2.27
 139  0.381  0.299  0.355-  42 2.13  34 2.19  47 2.23
 140  0.629  0.793  0.355-  35 2.14  43 2.15  48 2.36
 141  0.891  0.294  0.355-  44 2.11  36 2.13  45 2.23
 142  0.065  0.544  0.375-  33 2.02  45 2.03
 143  0.316  0.043  0.375-  46 2.02  34 2.02
 144  0.577  0.539  0.379-  49 2.08  47 2.21  35 2.27
 145  0.816  0.042  0.375-  48 2.01  36 2.03
 146  0.805  0.668  0.406- 149 0.97  49 2.15  40 2.27
 147  0.756  0.413  0.417-  49 1.92  44 2.09
 148  0.678  0.589  0.498-  49 1.94
 149  0.836  0.718  0.433- 146 0.97
 
  Warning from LATTYP: Monoclinic adjustement (A1->A3, A2->A1, A3->A2)!
  Warning from LATTYP: Got some problem with cell dimensions!
  Tried to take original basis but could not verify dimensions!
  LATTYP: Found a simple monoclinic cell.
 ALAT       =    18.5584556648
 B/A-ratio  =     1.2917238965
 C/A-ratio  =     1.7011970181
 COS(beta)  =    -0.9496615564
  
  Lattice vectors:
  
 A1 = ( -14.0305058395, -12.1474763861,   0.0000000000)
 A2 = (   0.0000000000,   0.0000000000, -23.9724006653)
 A3 = (  29.1411063110,  12.1474763861,   0.0000000000)


Analysis of symmetry for initial positions (statically):
=====================================================================
 Subroutine PRICEL returns:
 Original cell was already a primitive cell.
 

 Routine SETGRP: Setting up the symmetry group for a 
 simple monoclinic supercell.


 Subroutine GETGRP returns: Found  1 space group operations
 (whereof  1 operations were pure point group operations)
 out of a pool of  4 trial point group operations.


The static configuration has the point symmetry C_1 .


Analysis of symmetry for dynamics (positions and initial velocities):
=====================================================================
 Subroutine PRICEL returns:
 Original cell was already a primitive cell.
 

 Routine SETGRP: Setting up the symmetry group for a 
 simple monoclinic supercell.


 Subroutine GETGRP returns: Found  1 space group operations
 (whereof  1 operations were pure point group operations)
 out of a pool of  4 trial point group operations.


The dynamic configuration has the point symmetry C_1 .


Analysis of constrained symmetry for selective dynamics:
=====================================================================
 Subroutine PRICEL returns:
 Original cell was already a primitive cell.
 

 Routine SETGRP: Setting up the symmetry group for a 
 simple monoclinic supercell.


 Subroutine GETGRP returns: Found  1 space group operations
 (whereof  1 operations were pure point group operations)
 out of a pool of  4 trial point group operations.


The constrained configuration has the point symmetry C_1 .


Analysis of structural, dynamic, and magnetic symmetry:
=====================================================================
 Subroutine PRICEL returns:
 Original cell was already a primitive cell.
 

 Routine SETGRP: Setting up the symmetry group for a 
 simple monoclinic supercell.


 Subroutine GETGRP returns: Found  1 space group operations
 (whereof  1 operations were pure point group operations)
 out of a pool of  4 trial point group operations.


The magnetic configuration has the point symmetry C_1 .


 Subroutine INISYM returns: Found  1 space group operations
 (whereof  1 operations are pure point group operations),
 and found     1 'primitive' translations

 
 
 KPOINTS: Monkhorst Pack                          

Automatic generation of k-mesh.
Space group operators:
 irot       det(A)        alpha          n_x          n_y          n_z        tau_x        tau_y        tau_z
    1     1.000000     0.000000     1.000000     0.000000     0.000000     0.000000     0.000000     0.000000
 
 Subroutine IBZKPT returns following result:
 ===========================================
 
 Found      2 irreducible k-points:
 
 Following reciprocal coordinates:
            Coordinates               Weight
  0.250000  0.250000  0.000000      2.000000
 -0.250000  0.250000  0.000000      2.000000
 
 Following cartesian coordinates:
            Coordinates               Weight
  0.016545  0.022051  0.000000      2.000000
 -0.016545  0.019109  0.000000      2.000000
 


--------------------------------------------------------------------------------------------------------




 Dimension of arrays:
   k-points           NKPTS =      2   k-points in BZ     NKDIM =      2   number of bands    NBANDS=    640
   number of dos      NEDOS =    301   number of ions     NIONS =    149
   non local maximal  LDIM  =      6   non local SUM 2l+1 LMDIM =     18
   total plane-waves  NPLWV = 823200
   max r-space proj   IRMAX =   2561   max aug-charges    IRDMAX=   7978
   dimension x,y,z NGX =    84 NGY =   70 NGZ =  140
   dimension x,y,z NGXF=   168 NGYF=  140 NGZF=  280
   support grid    NGXF=   168 NGYF=  140 NGZF=  280
   ions per type =              49  98   2
   NGX,Y,Z   is equivalent  to a cutoff of   9.24,  9.54,  9.71 a.u.
   NGXF,Y,Z  is equivalent  to a cutoff of  18.48, 19.08, 19.42 a.u.

 SYSTEM =  mZrO2_n111                              
 POSCAR =  CONTCAR-ZrO2H2_10                       

 Startparameter for this run:
   NWRITE =      2    write-flag & timer
   PREC   = normal    normal or accurate (medium, high low for compatibility)
   ISTART =      1    job   : 0-new  1-cont  2-samecut
   ICHARG =      1    charge: 1-file 2-atom 10-const
   ISPIN  =      2    spin polarized calculation?
   LNONCOLLINEAR =      F non collinear calculations
   LSORBIT =      F    spin-orbit coupling
   INIWAV =      1    electr: 0-lowe 1-rand  2-diag
   LASPH  =      F    aspherical Exc in radial PAW
   METAGGA=      F    non-selfconsistent MetaGGA calc.

 Electronic Relaxation 1
   ENCUT  =  500.0 eV  36.75 Ry    6.06 a.u.  27.55 22.24 43.71*2*pi/ulx,y,z
   ENINI  =  500.0     initial cutoff
   ENAUG  =  605.4 eV  augmentation charge cutoff
   NELM   =    300;   NELMIN=  2; NELMDL=  0     # of ELM steps 
   EDIFF  = 0.1E-05   stopping-criterion for ELM
   LREAL  =      T    real-space projection
   NLSPLINE    = F    spline interpolate recip. space projectors
   LCOMPAT=      F    compatible to vasp.4.4
   GGA_COMPAT  = T    GGA compatible to vasp.4.4-vasp.4.6
   LMAXPAW     = -100 max onsite density
   LMAXMIX     =    2 max onsite mixed and CHGCAR
   VOSKOWN=      0    Vosko Wilk Nusair interpolation
   ROPT   =   -0.00050  -0.00050  -0.00050
 Ionic relaxation
   EDIFFG = -.2E-01   stopping-criterion for IOM
   NSW    =      0    number of steps for IOM
   NBLOCK =      1;   KBLOCK =      1    inner block; outer block 
   IBRION =     -1    ionic relax: 0-MD 1-quasi-New 2-CG
   NFREE  =      1    steps in history (QN), initial steepest desc. (CG)
   ISIF   =      2    stress and relaxation
   IWAVPR =     10    prediction:  0-non 1-charg 2-wave 3-comb
   ISYM   =      2    0-nonsym 1-usesym 2-fastsym
   LCORR  =      T    Harris-Foulkes like correction to forces

   POTIM  = 0.5000    time-step for ionic-motion
   TEIN   =    0.0    initial temperature
   TEBEG  =    0.0;   TEEND  =   0.0 temperature during run
   SMASS  =  -3.00    Nose mass-parameter (am)
   estimated Nose-frequenzy (Omega)   =  0.10E-29 period in steps =****** mass=  -0.522E-26a.u.
   SCALEE = 1.0000    scale energy and forces
   NPACO  =    256;   APACO  = 16.0  distance and # of slots for P.C.
   PSTRESS=    0.0 pullay stress

  Mass of Ions in am
   POMASS =  91.22 16.00  1.00
  Ionic Valenz
   ZVAL   =  12.00  6.00  1.00
  Atomic Wigner-Seitz radii
   RWIGS  =  -1.00 -1.00 -1.00
  virtual crystal weights 
   VCA    =   1.00  1.00  1.00
   NELECT =    1178.0000    total number of electrons
   NUPDOWN=      -1.0000    fix difference up-down

 DOS related values:
   EMIN   =  10.00;   EMAX   =-10.00  energy-range for DOS
   EFERMI =   0.00
   ISMEAR =     0;   SIGMA  =   0.05  broadening in eV -4-tet -1-fermi 0-gaus

 Electronic relaxation 2 (details)
   IALGO  =     38    algorithm
   LDIAG  =      T    sub-space diagonalisation (order eigenvalues)
   LSUBROT=      F    optimize rotation matrix (better conditioning)
   TURBO    =      0    0=normal 1=particle mesh
   IRESTART =      0    0=no restart 2=restart with 2 vectors
   NREBOOT  =      0    no. of reboots
   NMIN     =      0    reboot dimension
   EREF     =   0.00    reference energy to select bands
   IMIX   =      4    mixing-type and parameters
     AMIX     =   0.40;   BMIX     =  1.00
     AMIX_MAG =   1.60;   BMIX_MAG =  1.00
     AMIN     =   0.10
     WC   =   100.;   INIMIX=   1;  MIXPRE=   1;  MAXMIX= -45

 Intra band minimization:
   WEIMIN = 0.0000     energy-eigenvalue tresh-hold
   EBREAK =  0.39E-09  absolut break condition
   DEPER  =   0.30     relativ break condition  

   TIME   =   0.40     timestep for ELM

  volume/ion in A,a.u.               =      29.53       199.29
  Fermi-wavevector in a.u.,A,eV,Ry     =   1.055108  1.993865 15.146719  1.113252
  Thomas-Fermi vector in A             =   2.190293
 
 Write flags
   LWAVE        =      F    write WAVECAR
   LDOWNSAMPLE  =      F    k-point downsampling of WAVECAR
   LCHARG       =      F    write CHGCAR
   LVTOT        =      F    write LOCPOT, total local potential
   LVHAR        =      F    write LOCPOT, Hartree potential only
   LELF         =      F    write electronic localiz. function (ELF)
   LORBIT       =      0    0 simple, 1 ext, 2 COOP (PROOUT), +10 PAW based schemes


 Dipole corrections
   LMONO  =      F    monopole corrections only (constant potential shift)
   LDIPOL =      F    correct potential (dipole corrections)
   IDIPOL =      3    1-x, 2-y, 3-z, 4-all directions 
   EPSILON=  1.0000000 bulk dielectric constant

 LDA+U is selected, type is set to LDAUTYPE =  2
   angular momentum for each species LDAUL =     2   -1   -1
   U (eV)           for each species LDAUU =   4.0  0.0  0.0
   J (eV)           for each species LDAUJ =   0.0  0.0  0.0
 Exchange correlation treatment:
   GGA     =    --    GGA type
   LEXCH   =     8    internal setting for exchange type
   VOSKOWN=      0    Vosko Wilk Nusair interpolation
   LHFCALC =     F    Hartree Fock is set to
   LHFONE  =     F    Hartree Fock one center treatment
   AEXX    =    0.0000 exact exchange contribution

 Linear response parameters
   LEPSILON=     F    determine dielectric tensor
   LRPA    =     F    only Hartree local field effects (RPA)
   LNABLA  =     F    use nabla operator in PAW spheres
   LVEL    =     F    velocity operator in full k-point grid
   LINTERFAST=   F  fast interpolation
   KINTER  =     0    interpolate to denser k-point grid
   CSHIFT  =0.1000    complex shift for real part using Kramers Kronig
   OMEGAMAX=  -1.0    maximum frequency
   DEG_THRESHOLD= 0.2000000E-02 threshold for treating states as degnerate
   RTIME   =   -0.100 relaxation time in fs
  (WPLASMAI=    0.000 imaginary part of plasma frequency in eV, 0.658/RTIME)
   DFIELD  = 0.0000000 0.0000000 0.0000000 field for delta impulse in time
 
 Orbital magnetization related:
   ORBITALMAG=     F  switch on orbital magnetization
   LCHIMAG   =     F  perturbation theory with respect to B field
   DQ        =  0.001000  dq finite difference perturbation B field
   LLRAUG    =     F  two centre corrections for induced B field



--------------------------------------------------------------------------------------------------------


 Static calculation
 charge density and potential will be updated during run
 spin polarized calculation
 Variant of blocked Davidson
 Davidson routine will perform the subspace rotation
 perform sub-space diagonalisation
    after iterative eigenvector-optimisation
 modified Broyden-mixing scheme, WC =      100.0
 initial mixing is a Kerker type mixing with AMIX =  0.4000 and BMIX =      1.0000
 Hartree-type preconditioning will be used
 using additional bands           51
 real space projection scheme for non local part
 use partial core corrections
 calculate Harris-corrections to forces 
   (improved forces if not selfconsistent)
 use gradient corrections 
 use of overlap-Matrix (Vanderbilt PP)
 Gauss-broadening in eV      SIGMA  =   0.05


--------------------------------------------------------------------------------------------------------


  energy-cutoff  :      500.00
  volume of cell :     4400.27
      direct lattice vectors                 reciprocal lattice vectors
    15.110600471  0.000000000  0.000000000     0.066178707  0.005884289  0.000000000
    -1.080094632 12.147476386  0.000000000     0.000000000  0.082321625  0.000000000
     0.000000000  0.000000000 23.972400665     0.000000000  0.000000000  0.041714637

  length of vectors
    15.110600471 12.195400238 23.972400665     0.066439793  0.082321625  0.041714637


 
 old parameters found on file WAVECAR:
  energy-cutoff  :      500.00
  volume of cell :     4400.27
      direct lattice vectors                 reciprocal lattice vectors
    15.110600471  0.000000000  0.000000000     0.066178707  0.005884289  0.000000000
    -1.080094632 12.147476386  0.000000000     0.000000000  0.082321625  0.000000000
     0.000000000  0.000000000 23.972400665     0.000000000  0.000000000  0.041714637

  length of vectors

 
 k-points in units of 2pi/SCALE and weight: Monkhorst Pack                          
   0.01654468  0.02205148  0.00000000       0.500
  -0.01654468  0.01910933  0.00000000       0.500
 
 k-points in reciprocal lattice and weights: Monkhorst Pack                          
   0.25000000  0.25000000  0.00000000       0.500
  -0.25000000  0.25000000  0.00000000       0.500
 
 position of ions in fractional coordinates (direct lattice) 
   0.08848000  0.32082999  0.03824000
   0.33847998  0.82083000  0.03824000
   0.58847999  0.32082999  0.03824000
   0.83848001  0.82083000  0.03824000
   0.07020001  0.83354995  0.04873000
   0.32019998  0.33355000  0.04873000
   0.57020004  0.83354995  0.04873000
   0.82020001  0.33355000  0.04873000
   0.23783000  0.06778000  0.05703000
   0.48783004  0.56778001  0.05703000
   0.73783001  0.06778000  0.05703000
   0.98782997  0.56778001  0.05703000
   0.21954999  0.58051001  0.06752000
   0.46955000  0.08051000  0.06752000
   0.71954999  0.58051001  0.06752000
   0.96955000  0.08051000  0.06752000
   0.10606144  0.98290516  0.17093449
   0.35637396  0.48376059  0.17112058
   0.60765384  0.98410321  0.17124454
   0.85547412  0.48260852  0.17316727
   0.08938047  0.49475814  0.18258132
   0.33906754  0.99484369  0.18213739
   0.58930737  0.49261068  0.18213712
   0.83899657  0.99559723  0.18263661
   0.00477589  0.23030868  0.19143827
   0.25341576  0.72989279  0.19130680
   0.50385743  0.22878767  0.19075800
   0.75753104  0.73017961  0.19092433
   0.23969212  0.24193562  0.20071986
   0.48825254  0.74283743  0.20005745
   0.74116067  0.24507298  0.20365578
   0.98904657  0.74043206  0.20208860
   0.12323598  0.64107232  0.31413306
   0.37153514  0.13925868  0.31292578
   0.62371134  0.64692648  0.30521776
   0.87462275  0.13881754  0.31394675
   0.10992932  0.16092558  0.31245675
   0.35839198  0.65953193  0.31271697
   0.60612477  0.15735632  0.31322562
   0.85878593  0.66165514  0.31806990
   0.02701957  0.88887547  0.32440915
   0.27560859  0.38840072  0.32540173
   0.52457117  0.88653334  0.32499302
   0.78159090  0.38167104  0.33311232
   0.01123808  0.40700313  0.33581963
   0.25902112  0.90660161  0.33606421
   0.50696547  0.39949351  0.33391383
   0.75968010  0.90763026  0.33640525
   0.69732105  0.54516702  0.42209758
   0.02440000  0.17254999  0.00000000
   0.27439999  0.67255002  0.00000000
   0.52439999  0.17254999  0.00000000
   0.77439999  0.67255002  0.00000000
   0.21455000  0.43156997  0.01581000
   0.46455001  0.93156996  0.01581000
   0.71455008  0.43156997  0.01581000
   0.96455004  0.93156996  0.01581000
   0.20673000  0.89092997  0.02490000
   0.45673000  0.39092998  0.02490000
   0.70672997  0.89092997  0.02490000
   0.95673004  0.39092998  0.02490000
   0.19748000  0.22610000  0.04418000
   0.44748002  0.72610003  0.04418000
   0.69748003  0.22610000  0.04418000
   0.94747999  0.72610003  0.04418000
   0.11054000  0.67523994  0.06158000
   0.36054002  0.17523999  0.06158000
   0.61053998  0.67523994  0.06158000
   0.86053999  0.17523999  0.06158000
   0.10129000  0.01041000  0.08086000
   0.35129000  0.51041000  0.08086000
   0.60128998  0.01041000  0.08086000
   0.85128994  0.51041000  0.08086000
   0.09348000  0.46976000  0.08995000
   0.34348000  0.96975995  0.08995000
   0.59348001  0.46976000  0.08995000
   0.84347996  0.96975995  0.08995000
   0.03362000  0.22878000  0.10576000
   0.28361999  0.72877998  0.10576000
   0.53361997  0.22878000  0.10576000
   0.78362002  0.72877998  0.10576000
   0.04556778  0.83298704  0.13366360
   0.29655119  0.33385310  0.13354787
   0.54658561  0.83355190  0.13350980
   0.79607075  0.33279005  0.13408629
   0.23139948  0.09333516  0.14621000
   0.48179449  0.59348350  0.14671742
   0.73176479  0.09368129  0.14692485
   0.98161309  0.59330676  0.14696268
   0.22570479  0.55225287  0.16053914
   0.47621935  0.05084918  0.16064223
   0.72521320  0.55208055  0.16070113
   0.97545304  0.05224061  0.16080195
   0.21507159  0.89015025  0.18104169
   0.46464326  0.38963261  0.18089093
   0.71518592  0.88939447  0.18122194
   0.96524849  0.39051852  0.18234539
   0.12993131  0.33499771  0.19226131
   0.37918829  0.83490706  0.19323188
   0.62830400  0.33472842  0.19395943
   0.87990971  0.83624511  0.19363819
   0.11781614  0.67116966  0.21466220
   0.36710342  0.16933938  0.21272366
   0.61883395  0.67065880  0.21416266
   0.86808867  0.17045736  0.21585591
   0.11567261  0.13036888  0.22389230
   0.36433360  0.63100534  0.22406512
   0.61493343  0.13111590  0.22483382
   0.86424309  0.63196186  0.22512252
   0.04728394  0.89331825  0.23983985
   0.29695261  0.39573956  0.24060168
   0.54732151  0.89333955  0.24017441
   0.79581857  0.39375928  0.24116581
   0.07013502  0.49212742  0.26889884
   0.31507646  0.99215435  0.26829187
   0.56235978  0.49375579  0.26887859
   0.81185286  0.99345837  0.26851925
   0.25147564  0.75009721  0.28256549
   0.49707031  0.24907172  0.28108909
   0.75045726  0.74888034  0.28301083
   0.00525327  0.25086341  0.28149629
   0.24597346  0.21406027  0.29098835
   0.49461341  0.71180718  0.29060651
   0.74420243  0.21409509  0.29584496
   0.99474064  0.71148908  0.29294680
   0.23941960  0.55421221  0.32956070
   0.48621548  0.05159453  0.32670890
   0.73228377  0.55180703  0.32730632
   0.98991141  0.05516014  0.32837857
   0.14740150  0.00365101  0.33054441
   0.39873548  0.50443144  0.33375280
   0.64363771  0.99975651  0.33373249
   0.89664814  0.50031018  0.32808048
   0.13784140  0.32117566  0.35148807
   0.38603537  0.81924740  0.35099720
   0.61919552  0.31115037  0.35276651
   0.89007138  0.83299630  0.34621832
   0.13225790  0.79966035  0.35610299
   0.38086909  0.29870125  0.35528843
   0.62896109  0.79327086  0.35496781
   0.89069872  0.29397541  0.35538090
   0.06546824  0.54429767  0.37474988
   0.31623473  0.04252572  0.37451308
   0.57735249  0.53920252  0.37887688
   0.81632307  0.04192429  0.37496612
   0.80525483  0.66836621  0.40635377
   0.75618548  0.41256748  0.41702227
   0.67758983  0.58929230  0.49843965
   0.83615904  0.71765730  0.43320169
 
 position of ions in cartesian coordinates  (Angst):
   0.99045921  3.89727473  0.91670460
   4.22806168  9.97101307  0.91670460
   8.54575920  3.89727473  0.91670460
  11.78336239  9.97101307  0.91670460
   0.16045142 10.12552833  1.16817511
   4.47814847  4.05179071  1.16817511
   7.71575212 10.12552833  1.16817511
  12.03344917  4.05179071  1.16817511
   3.52054525  0.82335597  1.36714601
   6.75814868  6.89709425  1.36714601
  11.07584571  0.82335597  1.36714601
  14.31344795  6.89709425  1.36714601
   2.69052649  7.05173159  1.61861647
   7.00822400  0.97799331  1.61861647
  10.24582672  7.05173159  1.61861647
  14.56352424  0.97799331  1.61861647
   0.54102152 11.93981724  4.09771012
   4.86251733  5.87647037  4.10217106
   8.11908983 11.95437052  4.10514262
  12.40546472  5.86247556  4.15123513
   0.81620693  6.01006284  4.37691251
   4.04898884 12.08484029  4.36627049
   8.37272204  5.98397654  4.36626403
  11.60240270 12.09399389  4.37823801
  -0.17658858  2.79766923  4.58923481
   3.04091102  8.86635541  4.58608319
   7.36647592  2.77919287  4.57292709
  10.65808584  8.86983955  4.57691457
   3.36057848  2.93890728  4.81173694
   6.57545433  9.02360013  4.79585723
  10.93468081  2.97701824  4.88211789
  14.14535083  8.99438097  4.84454894
   1.16975095  7.78741087  7.53052355
   5.46370651  1.69164153  7.50158217
   8.72591108  7.85852411  7.31680247
  13.06613887  1.68628281  7.52605740
   1.48728318  1.95483964  7.49033844
   4.70316116  8.01164854  7.49657657
   8.98894945  1.91148215  7.50877009
  12.26212093  8.03744020  7.62489904
  -0.55178771 10.79759380  7.77686609
   3.74510168  4.71808862  7.80066070
   6.96904540 10.76914286  7.79086299
  11.39806699  4.63633998  7.98550211
  -0.26978780  4.94406089  8.05040260
   2.93474915 11.01292165  8.05626600
   7.22906190  4.85283803  8.00471622
  10.49889594 11.02541716  8.06444148
   9.94810787  6.62240349 10.11869230
   0.18232835  2.09604693  0.00000000
   3.41993094  8.16978550  0.00000000
   7.73762846  2.09604693  0.00000000
  10.97523117  8.16978550  0.00000000
   2.77584291  5.24248600  0.37900365
   6.01344586 11.31622410  0.37900365
  10.33114434  5.24248600  0.37900365
  13.56874656 11.31622410  0.37900365
   2.16152573 10.82255077  0.59691280
   6.47922326  4.74881268  0.59691280
   9.71682548 10.82255077  0.59691280
  14.03452396  4.74881268  0.59691280
   2.73983193  2.74654436  1.05910064
   5.97743511  8.82028293  1.05910064
  10.29513263  2.74654436  1.05910064
  13.53273487  8.82028293  1.05910064
   0.94100273  8.20246124  1.47622036
   5.25870037  2.12872362  1.47622036
   8.49630260  8.20246124  1.47622036
  12.81400013  2.12872362  1.47622036
   1.51930892  0.12645522  1.93840825
   4.75691175  6.20019341  1.93840825
   9.07460880  0.12645522  1.93840825
  12.31221104  6.20019341  1.93840825
   0.90515363  5.70639848  2.15631746
   4.14275646 11.78013610  2.15631746
   8.46045399  5.70639848  2.15631746
  11.69805622 11.78013610  2.15631746
   0.26091433  2.77909971  2.53532100
   3.49851704  8.85283756  2.53532100
   7.81621408  2.77909971  2.53532100
  11.05381775  8.85283756  2.53532100
  -0.21114834 10.11869042  3.20423746
   4.12047359  4.05547265  3.20146311
   7.35892186 10.12555203  3.20055053
  11.66966237  4.04255923  3.21437028
   3.39577431  1.13378668  3.50500461
   6.63918576  7.20932682  3.51716888
  10.95622080  1.13799125  3.52214141
  14.19193580  7.20717984  3.52304835
   2.81404952  6.70847870  3.84850857
   7.14103842  0.61768920  3.85097996
  10.36210770  6.70638544  3.85239177
  14.68325630  0.63459164  3.85480882
   2.28841436 10.81307910  4.34000394
   6.60019859  4.73305298  4.33638978
   9.84625856 10.80389834  4.34432492
  14.16368728  4.74381448  4.37125674
   1.60151082  4.06937675  4.60896523
   4.82798413 10.14201383  4.63223206
   9.13251229  4.06610552  4.64967328
  12.39274029 10.15826779  4.64197239
   1.05534592  8.15301755  5.14596836
   5.36425056  2.05704606  5.09949679
   8.62657768  8.14681196  5.13399303
  12.93323101  2.07062678  5.17458433
   1.60707188  1.58365293  5.36723601
   4.82375399  7.66512242  5.37137880
   9.15039574  1.59272736  5.38980642
  12.37665345  7.67674181  5.39672732
  -0.25037946 10.85156236  5.74953696
   4.05969611  4.80723698  5.76779981
   7.30546536 10.85182109  5.75755718
  11.59999913  4.78318160  5.78132343
   0.52823802  5.97810626  6.44615065
   3.68937395 12.05217154  6.43160010
   7.96429100  5.99788682  6.44566541
  11.19455513 12.06801211  6.43705104
   2.98977196  9.11178809  6.77377320
   7.24200988  3.02559285  6.73838035
  10.53099824  9.09700628  6.78444892
  -0.19157613  3.04735730  6.74814196
   3.48560138  2.60029203  6.97568938
   6.70508653  8.64666086  6.96653581
  11.01410268  2.60071499  7.09211396
  14.26265282  8.64279679  7.02263806
   3.01917231  6.73227978  7.90036117
   7.29128082  0.62674328  7.83199677
  10.46924367  6.70306291  7.84631819
  14.89857757  0.67005652  7.87202268
   2.22338172  0.04435052  7.92394292
   5.48029886  6.12756906  8.00085574
   8.64592064 12.14451860  8.00036888
  13.00850943  6.07750608  7.86487674
   1.73596625  3.90147369  8.42601274
   4.94836158  9.95178839  8.41424553
   9.02034420  3.77969178  8.45666006
  12.54979824 10.11880290  8.29968418
   1.13478736  9.71385518  8.53664355
   5.43253500  3.62846639  8.51711671
   8.64717218  9.63623905  8.50943055
  13.14147117  3.57105930  8.51933323
   0.40137144  6.61184311  8.98365421
   4.73256481  0.51658014  8.97797757
   8.14175304  6.54994984  9.08258832
  12.28984963  0.50927428  8.98883796
  11.44598533  8.11896273  9.74127538
  10.98080475  5.01165367  9.99702506
   9.60229776  7.15841434 11.94879504
  11.85972743  8.71772510 10.38488436
 


--------------------------------------------------------------------------------------------------------


 k-point  1 :   0.2500 0.2500 0.0000  plane waves:  111683
 k-point  2 :  -0.2500 0.2500 0.0000  plane waves:  111725

 maximum and minimum number of plane-waves per node :      7001     6957

 maximum number of plane-waves:    111725
 maximum index in each direction: 
   IXMAX=   27   IYMAX=   21   IZMAX=   43
   IXMIN=  -27   IYMIN=  -22   IZMIN=  -43


 real space projection operators:
  total allocation   :      21601.81 KBytes
  max/ min on nodes  :       1584.02       1233.33


 parallel 3D FFT for wavefunctions:
    minimum data exchange during FFTs selected (reduces bandwidth)
 parallel 3D FFT for charge:
    minimum data exchange during FFTs selected (reduces bandwidth)


 total amount of memory used by VASP MPI-rank0    90853. kBytes
=======================================================================

   base      :      30000. kBytes
   nonlr-proj:       8294. kBytes
   fftplans  :       4220. kBytes
   grid      :      11656. kBytes
   one-center:        311. kBytes
   wavefun   :      36372. kBytes
 
     INWAV:  cpu time   37.1555: real time   37.1516
 Broyden mixing: mesh for mixing (old mesh)
   NGX = 55   NGY = 45   NGZ = 87
  (NGX  =168   NGY  =140   NGZ  =280)
  gives a total of 215325 points

 initial charge density was supplied:
 number of electron    1178.0000055 magnetization      -0.0000000
 keeping initial charge density in first step


--------------------------------------------------------------------------------------------------------


 Maximum index for non-local projection operator          419
 Maximum index for augmentation-charges          479 (set IRDMAX)


--------------------------------------------------------------------------------------------------------


 First call to EWALD:  gamma=   0.108
 Maximum number of real-space cells 3x 4x 2
 Maximum number of reciprocal cells 3x 2x 4

    FEWALD:  cpu time    0.0161: real time    0.0162


--------------------------------------- Iteration      1(   1)  ---------------------------------------


    POTLOK:  cpu time    0.4595: real time    0.4876
    SETDIJ:  cpu time    0.0746: real time    0.0759
     EDDAV:  cpu time   27.1122: real time   27.0728
       DOS:  cpu time    0.0033: real time    0.0033
    CHARGE:  cpu time    1.0572: real time    1.0566
    MIXING:  cpu time    0.0247: real time    0.0254
    --------------------------------------------
      LOOP:  cpu time   28.7318: real time   28.7218

 eigenvalue-minimisations  :  6336
 total energy-change (2. order) :-0.1279379E+04  (-0.1272686E+00)
 number of electron    1178.0000055 magnetization      -0.0000000
 augmentation part       73.1648824 magnetization       0.0000000

 Broyden mixing:
  rms(total) = 0.95739E-01    rms(broyden)= 0.95662E-01
  rms(prec ) = 0.96926E-01
  weight for this iteration     100.00

 Free energy of the ion-electron system (eV)
  ---------------------------------------------------
  alpha Z        PSCENC =      2061.33132521
  Ewald energy   TEWEN  =    400575.64485515
  -Hartree energ DENC   =   -496295.39218628
  -exchange      EXHF   =         0.00000000
  -V(xc)+E(xc)   XCENC  =      5220.74368540
  PAW double counting   =    127667.03910015  -126984.74157115
  entropy T*S    EENTRO =        -0.00000000
  eigenvalues    EBANDS =    -18846.54281901
  atomic energy  EATOM  =    105322.53856674
  Solvation  Ediel_sol  =         0.00000000
  ---------------------------------------------------
  free energy    TOTEN  =     -1279.37904379 eV

  energy without entropy =    -1279.37904379  energy(sigma->0) =    -1279.37904379


--------------------------------------------------------------------------------------------------------




--------------------------------------- Iteration      1(   2)  ---------------------------------------


    POTLOK:  cpu time    0.4379: real time    0.4642
    SETDIJ:  cpu time    0.0746: real time    0.0745
     EDDAV:  cpu time   26.3105: real time   26.2558
       DOS:  cpu time    0.0022: real time    0.0021
    CHARGE:  cpu time    1.0371: real time    1.0358
    MIXING:  cpu time    0.0108: real time    0.0115
    --------------------------------------------
      LOOP:  cpu time   27.8732: real time   27.8440

 eigenvalue-minimisations  :  6336
 total energy-change (2. order) :-0.1757466E+01  (-0.1136250E+00)
 number of electron    1178.0000055 magnetization      -0.0000000
 augmentation part       73.0914005 magnetization      -0.0000000

 Broyden mixing:
  rms(total) = 0.39745E-01    rms(broyden)= 0.39629E-01
  rms(prec ) = 0.41720E-01
  weight for this iteration     100.00

 eigenvalues of (default mixing * dielectric matrix)
  average eigenvalue GAMMA=   0.7413
  0.7413

 Free energy of the ion-electron system (eV)
  ---------------------------------------------------
  alpha Z        PSCENC =      2061.33132521
  Ewald energy   TEWEN  =    400575.64485515
  -Hartree energ DENC   =   -496296.44694525
  -exchange      EXHF   =         0.00000000
  -V(xc)+E(xc)   XCENC  =      5220.82860144
  PAW double counting   =    127520.87966053  -126837.51318119
  entropy T*S    EENTRO =        -0.00000000
  eigenvalues    EBANDS =    -18848.39939230
  atomic energy  EATOM  =    105322.53856674
  Solvation  Ediel_sol  =         0.00000000
  ---------------------------------------------------
  free energy    TOTEN  =     -1281.13650967 eV

  energy without entropy =    -1281.13650967  energy(sigma->0) =    -1281.13650967


--------------------------------------------------------------------------------------------------------




--------------------------------------- Iteration      1(   3)  ---------------------------------------


    POTLOK:  cpu time    0.4367: real time    0.4490
    SETDIJ:  cpu time    0.0740: real time    0.0740
     EDDAV:  cpu time   27.4694: real time   27.4103
       DOS:  cpu time    0.0020: real time    0.0020
    CHARGE:  cpu time    1.0392: real time    1.0377
    MIXING:  cpu time    0.0084: real time    0.0084
    --------------------------------------------
      LOOP:  cpu time   29.0297: real time   28.9814

 eigenvalue-minimisations  :  6784
 total energy-change (2. order) :-0.9997900E-02  (-0.3831067E-02)
 number of electron    1178.0000055 magnetization      -0.0000000
 augmentation part       73.1207761 magnetization       0.0000000

 Broyden mixing:
  rms(total) = 0.27664E-01    rms(broyden)= 0.27646E-01
  rms(prec ) = 0.28074E-01
  weight for this iteration     100.00

 eigenvalues of (default mixing * dielectric matrix)
  average eigenvalue GAMMA=   0.6978
  0.6978  0.6978

 Free energy of the ion-electron system (eV)
  ---------------------------------------------------
  alpha Z        PSCENC =      2061.33132521
  Ewald energy   TEWEN  =    400575.64485515
  -Hartree energ DENC   =   -496294.07997435
  -exchange      EXHF   =         0.00000000
  -V(xc)+E(xc)   XCENC  =      5220.64595882
  PAW double counting   =    127549.95395351  -126865.85217124
  entropy T*S    EENTRO =        -0.00000000
  eigenvalues    EBANDS =    -18851.32902141
  atomic energy  EATOM  =    105322.53856674
  Solvation  Ediel_sol  =         0.00000000
  ---------------------------------------------------
  free energy    TOTEN  =     -1281.14650757 eV

  energy without entropy =    -1281.14650757  energy(sigma->0) =    -1281.14650757


--------------------------------------------------------------------------------------------------------




--------------------------------------- Iteration      1(   4)  ---------------------------------------


    POTLOK:  cpu time    0.4461: real time    0.4459
    SETDIJ:  cpu time    0.0743: real time    0.0743
     EDDAV:  cpu time   24.3708: real time   24.3112
       DOS:  cpu time    0.0020: real time    0.0020
    CHARGE:  cpu time    1.0368: real time    1.0355
    MIXING:  cpu time    0.0087: real time    0.0094
    --------------------------------------------
      LOOP:  cpu time   25.9389: real time   25.8784

 eigenvalue-minimisations  :  5760
 total energy-change (2. order) :-0.2395481E-04  (-0.1951412E-03)
 number of electron    1178.0000055 magnetization      -0.0000000
 augmentation part       73.1181450 magnetization      -0.0000000

 Broyden mixing:
  rms(total) = 0.22421E-01    rms(broyden)= 0.22419E-01
  rms(prec ) = 0.22715E-01
  weight for this iteration     100.00

 eigenvalues of (default mixing * dielectric matrix)
  average eigenvalue GAMMA=   0.6886
  0.7752  0.7752  0.5154

 Free energy of the ion-electron system (eV)
  ---------------------------------------------------
  alpha Z        PSCENC =      2061.33132521
  Ewald energy   TEWEN  =    400575.64485515
  -Hartree energ DENC   =   -496294.79571721
  -exchange      EXHF   =         0.00000000
  -V(xc)+E(xc)   XCENC  =      5220.71033876
  PAW double counting   =    127579.18703796  -126895.02674134
  entropy T*S    EENTRO =        -0.00000000
  eigenvalues    EBANDS =    -18850.73619680
  atomic energy  EATOM  =    105322.53856674
  Solvation  Ediel_sol  =         0.00000000
  ---------------------------------------------------
  free energy    TOTEN  =     -1281.14653153 eV

  energy without entropy =    -1281.14653153  energy(sigma->0) =    -1281.14653153


--------------------------------------------------------------------------------------------------------




--------------------------------------- Iteration      1(   5)  ---------------------------------------


    POTLOK:  cpu time    0.4215: real time    0.4805
    SETDIJ:  cpu time    0.0743: real time    0.0743
     EDDAV:  cpu time   28.1931: real time   28.1357
       DOS:  cpu time    0.0020: real time    0.0020
    CHARGE:  cpu time    1.0371: real time    1.0359
    MIXING:  cpu time    0.0093: real time    0.0093
    --------------------------------------------
      LOOP:  cpu time   29.7373: real time   29.7375

 eigenvalue-minimisations  :  6976
 total energy-change (2. order) :-0.5488910E-05  (-0.1886528E-04)
 number of electron    1178.0000055 magnetization      -0.0000000
 augmentation part       73.1243786 magnetization      -0.0000000

 Broyden mixing:
  rms(total) = 0.18917E-01    rms(broyden)= 0.18917E-01
  rms(prec ) = 0.19165E-01
  weight for this iteration     100.00

 eigenvalues of (default mixing * dielectric matrix)
  average eigenvalue GAMMA=   0.7335
  0.9170  0.9170  0.5500  0.5500

 Free energy of the ion-electron system (eV)
  ---------------------------------------------------
  alpha Z        PSCENC =      2061.33132521
  Ewald energy   TEWEN  =    400575.64485515
  -Hartree energ DENC   =   -496294.87641516
  -exchange      EXHF   =         0.00000000
  -V(xc)+E(xc)   XCENC  =      5220.71441542
  PAW double counting   =    127596.97800757  -126912.78132497
  entropy T*S    EENTRO =        -0.00000000
  eigenvalues    EBANDS =    -18850.69596697
  atomic energy  EATOM  =    105322.53856674
  Solvation  Ediel_sol  =         0.00000000
  ---------------------------------------------------
  free energy    TOTEN  =     -1281.14653702 eV

  energy without entropy =    -1281.14653702  energy(sigma->0) =    -1281.14653702


--------------------------------------------------------------------------------------------------------




--------------------------------------- Iteration      1(   6)  ---------------------------------------


    POTLOK:  cpu time    0.4355: real time    0.4456
    SETDIJ:  cpu time    0.0739: real time    0.0739
     EDDAV:  cpu time   28.1362: real time   28.0787
       DOS:  cpu time    0.0021: real time    0.0021
    CHARGE:  cpu time    1.0686: real time    1.0674
    MIXING:  cpu time    0.0094: real time    0.0094
    --------------------------------------------
      LOOP:  cpu time   29.7257: real time   29.6770

 eigenvalue-minimisations  :  6912
 total energy-change (2. order) :-0.1489013E-04  (-0.2189123E-05)
 number of electron    1178.0000055 magnetization      -0.0000000
 augmentation part       73.1258677 magnetization      -0.0000000

 Broyden mixing:
  rms(total) = 0.16246E-01    rms(broyden)= 0.16246E-01
  rms(prec ) = 0.16470E-01
  weight for this iteration     100.00

 eigenvalues of (default mixing * dielectric matrix)
  average eigenvalue GAMMA=   0.7990
  1.1320  1.1320  0.5229  0.6041  0.6041

 Free energy of the ion-electron system (eV)
  ---------------------------------------------------
  alpha Z        PSCENC =      2061.33132521
  Ewald energy   TEWEN  =    400575.64485515
  -Hartree energ DENC   =   -496295.00994564
  -exchange      EXHF   =         0.00000000
  -V(xc)+E(xc)   XCENC  =      5220.72291114
  PAW double counting   =    127611.93047606  -126927.72366737
  entropy T*S    EENTRO =        -0.00000000
  eigenvalues    EBANDS =    -18850.58107321
  atomic energy  EATOM  =    105322.53856674
  Solvation  Ediel_sol  =         0.00000000
  ---------------------------------------------------
  free energy    TOTEN  =     -1281.14655191 eV

  energy without entropy =    -1281.14655191  energy(sigma->0) =    -1281.14655191


--------------------------------------------------------------------------------------------------------




--------------------------------------- Iteration      1(   7)  ---------------------------------------


    POTLOK:  cpu time    0.4216: real time    0.4475
    SETDIJ:  cpu time    0.0737: real time    0.0736
     EDDAV:  cpu time   27.2363: real time   27.1756
       DOS:  cpu time    0.0022: real time    0.0022
    CHARGE:  cpu time    1.0375: real time    1.0363
    MIXING:  cpu time    0.0100: real time    0.0100
    --------------------------------------------
      LOOP:  cpu time   28.7815: real time   28.7453

 eigenvalue-minimisations  :  6656
 total energy-change (2. order) :-0.1000777E-04  (-0.2207980E-05)
 number of electron    1178.0000055 magnetization      -0.0000000
 augmentation part       73.1269551 magnetization      -0.0000000

 Broyden mixing:
  rms(total) = 0.13049E-01    rms(broyden)= 0.13049E-01
  rms(prec ) = 0.13226E-01
  weight for this iteration     100.00

 eigenvalues of (default mixing * dielectric matrix)
  average eigenvalue GAMMA=   0.8590
  1.3436  1.3436  0.6863  0.6863  0.5471  0.5471

 Free energy of the ion-electron system (eV)
  ---------------------------------------------------
  alpha Z        PSCENC =      2061.33132521
  Ewald energy   TEWEN  =    400575.64485515
  -Hartree energ DENC   =   -496295.06291802
  -exchange      EXHF   =         0.00000000
  -V(xc)+E(xc)   XCENC  =      5220.72817522
  PAW double counting   =    127628.95464233  -126944.73665072
  entropy T*S    EENTRO =        -0.00000000
  eigenvalues    EBANDS =    -18850.54455782
  atomic energy  EATOM  =    105322.53856674
  Solvation  Ediel_sol  =         0.00000000
  ---------------------------------------------------
  free energy    TOTEN  =     -1281.14656191 eV

  energy without entropy =    -1281.14656191  energy(sigma->0) =    -1281.14656191


--------------------------------------------------------------------------------------------------------




--------------------------------------- Iteration      1(   8)  ---------------------------------------


    POTLOK:  cpu time    0.4667: real time    0.4776
    SETDIJ:  cpu time    0.0739: real time    0.0738
     EDDAV:  cpu time   25.8092: real time   25.7498
       DOS:  cpu time    0.0021: real time    0.0021
    CHARGE:  cpu time    1.0412: real time    1.0400
    MIXING:  cpu time    0.0104: real time    0.0104
    --------------------------------------------
      LOOP:  cpu time   27.4035: real time   27.3537

 eigenvalue-minimisations  :  6144
 total energy-change (2. order) :-0.7661321E-05  (-0.1591987E-05)
 number of electron    1178.0000055 magnetization      -0.0000000
 augmentation part       73.1283993 magnetization      -0.0000000

 Broyden mixing:
  rms(total) = 0.10723E-01    rms(broyden)= 0.10723E-01
  rms(prec ) = 0.10861E-01
  weight for this iteration     100.00

 eigenvalues of (default mixing * dielectric matrix)
  average eigenvalue GAMMA=   0.9135
  1.5772  1.5772  0.7684  0.7684  0.5334  0.5849  0.5849

 Free energy of the ion-electron system (eV)
  ---------------------------------------------------
  alpha Z        PSCENC =      2061.33132521
  Ewald energy   TEWEN  =    400575.64485515
  -Hartree energ DENC   =   -496295.10352617
  -exchange      EXHF   =         0.00000000
  -V(xc)+E(xc)   XCENC  =      5220.73150083
  PAW double counting   =    127641.49734280  -126957.27037689
  entropy T*S    EENTRO =        -0.00000000
  eigenvalues    EBANDS =    -18850.51625725
  atomic energy  EATOM  =    105322.53856674
  Solvation  Ediel_sol  =         0.00000000
  ---------------------------------------------------
  free energy    TOTEN  =     -1281.14656957 eV

  energy without entropy =    -1281.14656957  energy(sigma->0) =    -1281.14656957


--------------------------------------------------------------------------------------------------------




--------------------------------------- Iteration      1(   9)  ---------------------------------------


    POTLOK:  cpu time    0.4425: real time    0.4457
    SETDIJ:  cpu time    0.0738: real time    0.0738
     EDDAV:  cpu time   20.3512: real time   20.3022
       DOS:  cpu time    0.0020: real time    0.0020
    CHARGE:  cpu time    1.0415: real time    1.0402
    MIXING:  cpu time    0.0129: real time    0.0129
    --------------------------------------------
      LOOP:  cpu time   21.9239: real time   21.8767

 eigenvalue-minimisations  :  4224
 total energy-change (2. order) :-0.6007496E-05  (-0.4448915E-06)
 number of electron    1178.0000055 magnetization      -0.0000000
 augmentation part       73.1292198 magnetization      -0.0000000

 Broyden mixing:
  rms(total) = 0.91090E-02    rms(broyden)= 0.91090E-02
  rms(prec ) = 0.92292E-02
  weight for this iteration     100.00

 eigenvalues of (default mixing * dielectric matrix)
  average eigenvalue GAMMA=   1.0785
  2.1305  2.1305  0.9324  0.9324  0.6678  0.6678  0.5833  0.5833

 Free energy of the ion-electron system (eV)
  ---------------------------------------------------
  alpha Z        PSCENC =      2061.33132521
  Ewald energy   TEWEN  =    400575.64485515
  -Hartree energ DENC   =   -496295.12622160
  -exchange      EXHF   =         0.00000000
  -V(xc)+E(xc)   XCENC  =      5220.73315028
  PAW double counting   =    127650.26773961  -126966.03856343
  entropy T*S    EENTRO =        -0.00000000
  eigenvalues    EBANDS =    -18850.49742754
  atomic energy  EATOM  =    105322.53856674
  Solvation  Ediel_sol  =         0.00000000
  ---------------------------------------------------
  free energy    TOTEN  =     -1281.14657558 eV

  energy without entropy =    -1281.14657558  energy(sigma->0) =    -1281.14657558


--------------------------------------------------------------------------------------------------------




--------------------------------------- Iteration      1(  10)  ---------------------------------------


    POTLOK:  cpu time    0.4428: real time    0.4527
    SETDIJ:  cpu time    0.0796: real time    0.0795
     EDDAV:  cpu time   27.9004: real time   27.8463
       DOS:  cpu time    0.0022: real time    0.0022
    CHARGE:  cpu time    1.0406: real time    1.0394
    MIXING:  cpu time    0.0114: real time    0.0114
    --------------------------------------------
      LOOP:  cpu time   29.4771: real time   29.4315

 eigenvalue-minimisations  :  6464
 total energy-change (2. order) :-0.7975221E-05  (-0.2845392E-05)
 number of electron    1178.0000055 magnetization      -0.0000000
 augmentation part       73.1304854 magnetization      -0.0000000

 Broyden mixing:
  rms(total) = 0.49640E-02    rms(broyden)= 0.49640E-02
  rms(prec ) = 0.50341E-02
  weight for this iteration     100.00

 eigenvalues of (default mixing * dielectric matrix)
  average eigenvalue GAMMA=   1.1320
  2.4203  2.4203  1.0790  1.0790  0.6947  0.6947  0.5929  0.6036  0.6036

 Free energy of the ion-electron system (eV)
  ---------------------------------------------------
  alpha Z        PSCENC =      2061.33132521
  Ewald energy   TEWEN  =    400575.64485515
  -Hartree energ DENC   =   -496295.18326630
  -exchange      EXHF   =         0.00000000
  -V(xc)+E(xc)   XCENC  =      5220.73762712
  PAW double counting   =    127672.29726051  -126988.05877772
  entropy T*S    EENTRO =        -0.00000000
  eigenvalues    EBANDS =    -18850.45417426
  atomic energy  EATOM  =    105322.53856674
  Solvation  Ediel_sol  =         0.00000000
  ---------------------------------------------------
  free energy    TOTEN  =     -1281.14658356 eV

  energy without entropy =    -1281.14658356  energy(sigma->0) =    -1281.14658356


--------------------------------------------------------------------------------------------------------




--------------------------------------- Iteration      1(  11)  ---------------------------------------


    POTLOK:  cpu time    0.4401: real time    0.4544
    SETDIJ:  cpu time    0.0749: real time    0.0749
     EDDAV:  cpu time   28.1511: real time   28.0925
       DOS:  cpu time    0.0021: real time    0.0021
    CHARGE:  cpu time    1.0373: real time    1.0362
    MIXING:  cpu time    0.0123: real time    0.0123
    --------------------------------------------
      LOOP:  cpu time   29.7179: real time   29.6723

 eigenvalue-minimisations  :  6848
 total energy-change (2. order) :-0.4795991E-05  (-0.2698183E-05)
 number of electron    1178.0000055 magnetization      -0.0000000
 augmentation part       73.1325080 magnetization      -0.0000000

 Broyden mixing:
  rms(total) = 0.16247E-02    rms(broyden)= 0.16245E-02
  rms(prec ) = 0.16445E-02
  weight for this iteration     100.00

 eigenvalues of (default mixing * dielectric matrix)
  average eigenvalue GAMMA=   1.1609
  2.6644  2.6644  1.1660  1.1660  0.7010  0.7010  0.6655  0.6655  0.6074  0.6074

 Free energy of the ion-electron system (eV)
  ---------------------------------------------------
  alpha Z        PSCENC =      2061.33132521
  Ewald energy   TEWEN  =    400575.64485515
  -Hartree energ DENC   =   -496295.25254452
  -exchange      EXHF   =         0.00000000
  -V(xc)+E(xc)   XCENC  =      5220.74237712
  PAW double counting   =    127690.47937012  -127006.22723178
  entropy T*S    EENTRO =        -0.00000000
  eigenvalues    EBANDS =    -18850.40330640
  atomic energy  EATOM  =    105322.53856674
  Solvation  Ediel_sol  =         0.00000000
  ---------------------------------------------------
  free energy    TOTEN  =     -1281.14658835 eV

  energy without entropy =    -1281.14658835  energy(sigma->0) =    -1281.14658835


--------------------------------------------------------------------------------------------------------




--------------------------------------- Iteration      1(  12)  ---------------------------------------


    POTLOK:  cpu time    0.4197: real time    0.4506
    SETDIJ:  cpu time    0.0743: real time    0.0742
     EDDAV:  cpu time   17.8811: real time   17.8331
       DOS:  cpu time    0.0022: real time    0.0022
    --------------------------------------------
      LOOP:  cpu time   18.3772: real time   18.3600

 eigenvalue-minimisations  :  3552
 total energy-change (2. order) :-0.9147479E-06  (-0.2452116E-06)
 number of electron    1178.0000055 magnetization      -0.0000000
 augmentation part       73.1325080 magnetization      -0.0000000

 Free energy of the ion-electron system (eV)
  ---------------------------------------------------
  alpha Z        PSCENC =      2061.33132521
  Ewald energy   TEWEN  =    400575.64485515
  -Hartree energ DENC   =   -496295.27179112
  -exchange      EXHF   =         0.00000000
  -V(xc)+E(xc)   XCENC  =      5220.74321754
  PAW double counting   =    127693.97852213  -127009.72439298
  entropy T*S    EENTRO =        -0.00000000
  eigenvalues    EBANDS =    -18850.38689193
  atomic energy  EATOM  =    105322.53856674
  Solvation  Ediel_sol  =         0.00000000
  ---------------------------------------------------
  free energy    TOTEN  =     -1281.14658927 eV

  energy without entropy =    -1281.14658927  energy(sigma->0) =    -1281.14658927


--------------------------------------------------------------------------------------------------------




 average (electrostatic) potential at core
  the test charge radii are     1.0638  0.7215  0.5201
  (the norm of the test charge is              1.0000)
       1 -85.0857       2 -85.1259       3 -85.1356       4 -85.1123       5 -85.4394
       6 -85.4789       7 -85.4882       8 -85.4432       9 -85.9850      10 -86.0431
      11 -85.9803      12 -85.9485      13 -84.5916      14 -84.6238      15 -84.5967
      16 -84.5770      17 -85.3620      18 -85.4165      19 -85.4180      20 -85.2880
      21 -85.2562      22 -85.3063      23 -85.4087      24 -85.2986      25 -85.1830
      26 -85.2548      27 -85.2344      28 -85.2377      29 -85.4252      30 -85.5092
      31 -85.3864      32 -85.3962      33 -85.0205      34 -85.0721      35 -85.4558
      36 -84.9963      37 -85.2899      38 -85.3712      39 -85.2598      40 -85.4663
      41 -85.3204      42 -85.5941      43 -85.5766      44 -85.1930      45 -85.0832
      46 -85.1722      47 -85.4803      48 -85.1770      49 -84.7909      50 -72.9580
      51 -72.9838      52 -73.0006      53 -72.9743      54 -74.2072      55 -74.2346
      56 -74.2049      57 -74.1924      58 -74.5741      59 -74.6064      60 -74.5813
      61 -74.5377      62 -75.0349      63 -75.0749      64 -75.0197      65 -75.0044
      66 -75.0509      67 -75.0938      68 -75.1006      69 -75.0512      70 -75.1881
      71 -75.2199      72 -75.2024      73 -75.0327      74 -75.1658      75 -75.2370
      76 -75.2785      77 -75.1867      78 -74.6254      79 -74.6785      80 -74.7183
      81 -74.7271      82 -75.0483      83 -75.1667      84 -75.1997      85 -75.0330
      86 -75.5354      87 -75.6122      88 -75.4521      89 -75.4398      90 -75.2220
      91 -75.2315      92 -75.2031      93 -75.1955      94 -74.8981      95 -74.9203
      96 -74.8745      97 -74.8362      98 -74.7457      99 -74.8632     100 -74.8152
     101 -74.7922     102 -75.0072     103 -75.0354     104 -75.3552     105 -75.0273
     106 -75.5415     107 -75.6240     108 -75.5742     109 -75.3311     110 -75.0895
     111 -75.1225     112 -75.1421     113 -74.6258     114 -74.8909     115 -74.9715
     116 -75.1023     117 -74.9469     118 -75.0207     119 -75.1127     120 -75.1895
     121 -74.8991     122 -75.3400     123 -75.5035     124 -75.2268     125 -75.2025
     126 -74.8451     127 -74.8654     128 -75.0806     129 -74.7913     130 -74.5754
     131 -74.6552     132 -74.6460     133 -74.5076     134 -74.6315     135 -74.6995
     136 -74.5142     137 -74.4949     138 -74.6346     139 -74.8029     140 -74.7830
     141 -74.6302     142 -73.9253     143 -73.9852     144 -74.8665     145 -73.9685
     146 -76.1012     147 -74.3909     148 -33.4724     149 -40.4092
 
 
 
 E-fermi :  -0.3152     XC(G=0):  -5.2081     alpha+bet : -5.8125


 spin component 1

 k-point     1 :       0.2500    0.2500    0.0000
  band No.  band energies     occupation 
[...]
   -.240E+01 -.590E+02 -.521E+03   0.327E+01 0.624E+02 0.520E+03   -.874E+00 -.336E+01 0.800E+00   -.338E-03 -.285E-03 -.821E-04
   0.225E+01 -.746E+02 -.504E+03   -.771E+00 0.783E+02 0.503E+03   -.149E+01 -.375E+01 0.766E+00   -.177E-03 0.244E-04 0.131E-03
   -.904E+01 -.495E+02 -.508E+03   0.935E+01 0.546E+02 0.513E+03   -.313E+00 -.512E+01 -.504E+01   0.279E-03 0.246E-03 -.917E-03
   -.347E+02 0.467E+02 -.738E+03   0.352E+02 -.484E+02 0.736E+03   -.509E+00 0.164E+01 0.257E+01   -.325E-03 -.659E-03 -.634E-03
   0.486E+01 0.486E+02 -.749E+03   -.537E+01 -.504E+02 0.746E+03   0.522E+00 0.178E+01 0.303E+01   -.195E-03 -.485E-03 -.759E-03
   0.465E+02 0.554E+02 -.709E+03   -.475E+02 -.568E+02 0.707E+03   0.102E+01 0.142E+01 0.255E+01   -.125E-03 -.576E-03 -.948E-03
   0.390E+01 0.233E+02 -.720E+03   -.495E+01 -.240E+02 0.716E+03   0.105E+01 0.673E+00 0.340E+01   -.743E-04 -.801E-03 -.427E-03
   0.308E+02 -.552E+02 -.918E+03   -.349E+02 0.595E+02 0.918E+03   0.411E+01 -.431E+01 0.667E+00   0.351E-03 0.356E-03 -.805E-03
   0.507E+02 -.231E+02 -.873E+03   -.541E+02 0.256E+02 0.872E+03   0.337E+01 -.250E+01 0.109E+01   0.276E-03 0.192E-03 -.916E-03
   0.155E+02 -.103E+03 -.834E+03   -.168E+02 0.108E+03 0.833E+03   0.125E+01 -.520E+01 0.106E+01   0.619E-03 -.147E-04 -.796E-03
   0.151E+02 -.430E+02 -.895E+03   -.201E+02 0.475E+02 0.895E+03   0.494E+01 -.450E+01 -.263E-01   0.632E-03 0.161E-03 -.624E-03
   0.353E+01 0.327E+02 -.105E+04   -.158E+01 -.354E+02 0.106E+04   -.195E+01 0.265E+01 -.266E+01   -.377E-03 0.213E-03 -.627E-03
   0.540E+02 0.219E+02 -.103E+04   -.535E+02 -.247E+02 0.104E+04   -.445E+00 0.281E+01 -.292E+01   -.101E-03 0.404E-03 -.855E-03
   0.727E+01 0.653E+02 -.105E+04   -.588E+01 -.686E+02 0.105E+04   -.139E+01 0.337E+01 -.226E+01   -.354E-05 -.314E-03 -.555E-03
   -.416E+02 0.194E+02 -.103E+04   0.430E+02 -.225E+02 0.103E+04   -.147E+01 0.314E+01 -.238E+01   -.629E-03 0.134E-03 -.558E-03
   0.221E+02 0.239E+02 -.142E+04   -.258E+02 -.256E+02 0.143E+04   0.371E+01 0.170E+01 -.478E+01   0.944E-05 -.803E-03 -.582E-03
   0.459E+02 0.393E+02 -.138E+04   -.494E+02 -.414E+02 0.139E+04   0.349E+01 0.211E+01 -.391E+01   0.367E-03 -.902E-03 -.598E-03
   0.122E+02 0.558E+02 -.110E+04   -.125E+02 -.597E+02 0.110E+04   0.250E+00 0.388E+01 0.442E+01   0.658E-03 0.272E-03 -.129E-02
   -.611E+01 0.207E+02 -.140E+04   0.354E+01 -.229E+02 0.141E+04   0.258E+01 0.217E+01 -.469E+01   0.315E-03 -.733E-03 -.501E-03
   -.312E+02 -.344E+02 -.140E+04   0.344E+02 0.356E+02 0.140E+04   -.326E+01 -.119E+01 -.293E+01   -.207E-03 0.229E-03 -.798E-03
   0.176E+02 -.334E+02 -.143E+04   -.142E+02 0.344E+02 0.143E+04   -.334E+01 -.949E+00 -.397E+01   -.405E-03 0.199E-03 -.933E-03
   -.267E+01 -.418E+02 -.142E+04   0.647E+01 0.432E+02 0.142E+04   -.380E+01 -.139E+01 -.390E+01   -.134E-03 -.806E-04 -.608E-03
   -.119E+03 -.110E+02 -.125E+04   0.123E+03 0.129E+02 0.125E+04   -.371E+01 -.189E+01 -.659E-01   0.320E-03 0.485E-03 -.688E-03
   -.373E+02 -.704E+01 -.164E+04   0.378E+02 0.104E+02 0.165E+04   -.440E+00 -.341E+01 -.848E+01   0.335E-03 0.269E-04 -.695E-03
   0.540E+01 -.260E+02 -.164E+04   -.492E+01 0.299E+02 0.164E+04   -.485E+00 -.392E+01 -.834E+01   0.347E-03 0.366E-03 -.443E-03
   0.564E+01 0.726E+02 -.156E+04   0.920E+00 -.683E+02 0.157E+04   -.656E+01 -.428E+01 -.986E+01   -.110E-03 -.237E-03 -.908E-03
   -.714E+02 -.994E+02 -.152E+04   0.710E+02 0.103E+03 0.153E+04   0.404E+00 -.347E+01 -.623E+01   0.348E-03 0.175E-03 -.293E-03
   -.394E+02 0.839E+01 -.169E+04   0.411E+02 -.981E+01 0.170E+04   -.175E+01 0.142E+01 -.111E+02   -.768E-03 0.368E-03 -.227E-03
   0.269E+02 0.389E+02 -.169E+04   -.255E+02 -.410E+02 0.170E+04   -.138E+01 0.214E+01 -.114E+02   -.733E-03 0.770E-04 -.496E-03
   0.533E+02 -.599E+02 -.165E+04   -.507E+02 0.596E+02 0.166E+04   -.259E+01 0.285E+00 -.117E+02   -.329E-03 0.404E-03 -.233E-03
   -.943E+02 0.800E+02 -.164E+04   0.971E+02 -.816E+02 0.165E+04   -.287E+01 0.161E+01 -.115E+02   -.276E-03 0.118E-03 -.185E-03
   -.559E+02 -.431E+02 -.183E+04   0.553E+02 0.470E+02 0.185E+04   0.532E+00 -.386E+01 -.183E+02   -.280E-03 -.239E-03 -.130E-02
   0.748E+01 -.422E+02 -.184E+04   -.726E+01 0.462E+02 0.186E+04   -.221E+00 -.393E+01 -.183E+02   -.277E-03 -.248E-03 -.135E-02
   0.249E+03 -.348E+02 -.167E+04   -.259E+03 0.375E+02 0.168E+04   0.101E+02 -.273E+01 -.575E+01   -.299E-03 0.904E-04 -.257E-03
   -.118E+02 -.582E+02 -.183E+04   0.120E+02 0.628E+02 0.184E+04   -.236E+00 -.460E+01 -.184E+02   0.107E-03 -.434E-03 -.114E-02
   -.118E+03 -.150E+03 -.174E+04   0.108E+03 0.136E+03 0.172E+04   0.959E+01 0.138E+02 0.180E+02   0.541E-03 0.696E-03 0.917E-03
   -.109E+03 0.242E+03 -.181E+04   0.116E+03 -.257E+03 0.182E+04   -.798E+01 0.145E+02 -.121E+02   0.151E-03 0.880E-03 -.457E-03
   0.158E+02 -.145E+02 -.269E+03   -.161E+02 0.149E+02 0.271E+03   0.288E+00 -.460E+00 -.157E+01   0.521E-05 0.323E-03 0.375E-03
   -.511E+02 -.674E+02 -.339E+03   0.546E+02 0.725E+02 0.344E+03   -.358E+01 -.515E+01 -.549E+01   -.715E-04 -.572E-04 0.229E-04
 -----------------------------------------------------------------------------------------------
   0.141E+02 0.135E+01 0.603E+02   -.178E-12 0.270E-12 0.210E-11   -.143E+02 -.155E+01 -.603E+02   0.194E-02 0.481E-02 0.309E-01
 
 
 POSITION                                       TOTAL-FORCE (eV/Angst)
 -----------------------------------------------------------------------------------
      0.99046      3.89727      0.91670        -1.482198     -1.865710     -0.722608
      4.22806      9.97101      0.91670        -1.488341     -1.888794     -0.781205
      8.54576      3.89727      0.91670        -1.351227     -1.920846     -0.810646
     11.78336      9.97101      0.91670        -1.351025     -1.842979     -0.797303
      0.16045     10.12553      1.16818        -0.224486      1.673921      0.320900
      4.47815      4.05179      1.16818        -0.189450      1.718719      0.183475
      7.71575     10.12553      1.16818        -0.101907      1.753509      0.146074
     12.03345      4.05179      1.16818        -0.134027      1.822675      0.474660
      3.52055      0.82336      1.36715        -0.850279     -0.875962      1.531444
      6.75815      6.89709      1.36715        -0.822366     -0.877138      1.531186
     11.07585      0.82336      1.36715        -0.764838     -0.816704      1.691145
     14.31345      6.89709      1.36715        -0.954116     -0.963324      1.746149
      2.69053      7.05173      1.61862         1.484637      0.474371     -2.515922
      7.00822      0.97799      1.61862         1.585051      0.440259     -2.530911
     10.24583      7.05173      1.61862         1.736745      0.389430     -2.480969
     14.56352      0.97799      1.61862         1.543797      0.512485     -2.485096
      0.54102     11.93982      4.09771         0.003596      0.000861     -0.001554
      4.86252      5.87647      4.10217        -0.002550     -0.003639     -0.002761
      8.11909     11.95437      4.10514         0.005010     -0.001177     -0.002910
     12.40546      5.86248      4.15124         0.001391     -0.001707     -0.000852
      0.81621      6.01006      4.37691         0.001102     -0.002548      0.000096
      4.04899     12.08484      4.36627         0.001061      0.003438      0.001611
      8.37272      5.98398      4.36626         0.000031      0.000477      0.000360
     11.60240     12.09399      4.37824         0.000469     -0.003341      0.000970
     -0.17659      2.79767      4.58923        -0.001002     -0.001006     -0.000754
      3.04091      8.86636      4.58608        -0.001086     -0.002391     -0.001037
      7.36648      2.77919      4.57293        -0.000524     -0.000808     -0.000667
     10.65809      8.86984      4.57691         0.000390     -0.001623      0.001905
      3.36058      2.93891      4.81174        -0.001705      0.000137     -0.002546
      6.57545      9.02360      4.79586         0.005531     -0.000893     -0.003661
     10.93468      2.97702      4.88212         0.000953     -0.003971     -0.000508
     14.14535      8.99438      4.84455         0.003374     -0.002140      0.000227
      1.16975      7.78741      7.53052        -0.000292      0.002066      0.001261
      5.46371      1.69164      7.50158         0.001707      0.002778      0.001143
      8.72591      7.85852      7.31680         0.002208      0.004387      0.000230
     13.06614      1.68628      7.52606        -0.001117      0.002840     -0.006809
      1.48728      1.95484      7.49034        -0.000897      0.002062     -0.003497
      4.70316      8.01165      7.49658        -0.006340      0.000707      0.001407
      8.98895      1.91148      7.50877        -0.000530      0.003517      0.001202
     12.26212      8.03744      7.62490        -0.001077      0.004197     -0.001484
     -0.55179     10.79759      7.77687         0.001634     -0.003303     -0.004371
      3.74510      4.71809      7.80066        -0.001863      0.001081     -0.001196
      6.96905     10.76914      7.79086         0.004689      0.001874      0.002886
     11.39807      4.63634      7.98550         0.000115      0.005368     -0.002207
     -0.26979      4.94406      8.05040        -0.002023      0.001809     -0.003817
      2.93475     11.01292      8.05627        -0.003969      0.000023      0.003034
      7.22906      4.85284      8.00472         0.001861     -0.003373      0.005226
     10.49890     11.02542      8.06444        -0.001922     -0.009965     -0.001461
      9.94811      6.62240     10.11869        -0.002298      0.003153      0.001150
      0.18233      2.09605      0.00000         0.267112      0.963193      1.291453
      3.41993      8.16979      0.00000         0.284615      0.989575      1.292458
      7.73763      2.09605      0.00000         0.257696      0.975053      1.308193
     10.97523      8.16979      0.00000         0.244751      0.990152      1.311499
      2.77584      5.24249      0.37900        -0.001030     -0.928991      0.599925
      6.01345     11.31622      0.37900        -0.032292     -0.928620      0.606582
     10.33114      5.24249      0.37900        -0.100420     -0.924374      0.595066
     13.56875     11.31622      0.37900        -0.046442     -0.928658      0.588069
      2.16153     10.82255      0.59691         0.406823      1.205384     -0.176243
      6.47922      4.74881      0.59691         0.392177      1.218825     -0.173846
      9.71683     10.82255      0.59691         0.352403      1.182894     -0.175911
     14.03452      4.74881      0.59691         0.395907      1.175752     -0.202254
      2.73983      2.74654      1.05910         1.190295     -1.030548     -0.421540
      5.97744      8.82028      1.05910         1.170258     -1.052068     -0.398163
     10.29513      2.74654      1.05910         1.122880     -1.026354     -0.441508
     13.53273      8.82028      1.05910         1.137170     -1.011545     -0.443186
      0.94100      8.20246      1.47622        -1.110305     -0.303860     -0.896341
      5.25870      2.12872      1.47622        -1.120355     -0.311453     -0.886564
      8.49630      8.20246      1.47622        -1.181423     -0.318696     -0.891943
     12.81400      2.12872      1.47622        -1.145484     -0.327150     -0.902621
      1.51931      0.12646      1.93841         0.365561     -0.074218      0.220514
      4.75691      6.20019      1.93841         0.435653     -0.010587      0.243802
      9.07461      0.12646      1.93841         0.409261     -0.046777      0.267389
     12.31221      6.20019      1.93841         0.355504     -0.086934      0.372977
      0.90515      5.70640      2.15632        -0.371848      0.333812      0.140362
      4.14276     11.78014      2.15632        -0.354511      0.322408      0.150188
      8.46045      5.70640      2.15632        -0.407875      0.305874      0.211391
     11.69806     11.78014      2.15632        -0.394598      0.321143      0.187325
      0.26091      2.77910      2.53532         0.204560      0.402241      0.531515
      3.49852      8.85284      2.53532         0.232119      0.419877      0.602265
      7.81621      2.77910      2.53532         0.212580      0.392300      0.488835
     11.05382      8.85284      2.53532         0.258078      0.421314      0.510420
     -0.21115     10.11869      3.20424         0.001427     -0.004150     -0.000553
      4.12047      4.05547      3.20146         0.003427      0.004039      0.001335
      7.35892     10.12555      3.20055         0.005201      0.000086      0.008036
     11.66966      4.04256      3.21437         0.002961     -0.001559     -0.004167
      3.39577      1.13379      3.50500        -0.002397     -0.000257      0.001280
      6.63919      7.20933      3.51717        -0.004042     -0.002324      0.008788
     10.95622      1.13799      3.52214        -0.007744      0.004668      0.001459
     14.19194      7.20718      3.52305         0.002287     -0.003650     -0.002807
      2.81405      6.70848      3.84851        -0.000482      0.001552     -0.002069
      7.14104      0.61769      3.85098         0.001528     -0.005701     -0.003951
     10.36211      6.70639      3.85239        -0.000479     -0.003477      0.005574
     14.68326      0.63459      3.85481        -0.000524     -0.001013     -0.000921
      2.28841     10.81308      4.34000        -0.000613      0.002776     -0.004593
      6.60020      4.73305      4.33639         0.002060      0.000461     -0.002940
      9.84626     10.80390      4.34432        -0.005435     -0.001807     -0.002974
     14.16369      4.74381      4.37126         0.001881      0.004175      0.001443
      1.60151      4.06938      4.60897        -0.000299      0.001216      0.001936
      4.82798     10.14201      4.63223        -0.010923      0.007184      0.009046
      9.13251      4.06611      4.64967        -0.001653     -0.004748     -0.000166
     12.39274     10.15827      4.64197         0.000542     -0.005205      0.006871
      1.05535      8.15302      5.14597         0.001630     -0.007268      0.006882
      5.36425      2.05705      5.09950        -0.000973      0.006900     -0.006121
      8.62658      8.14681      5.13399        -0.005017      0.002523     -0.002715
     12.93323      2.07063      5.17458        -0.001391      0.000509     -0.002485
      1.60707      1.58365      5.36724        -0.011209     -0.001325     -0.003258
      4.82375      7.66512      5.37138        -0.005886     -0.000340      0.001224
      9.15040      1.59273      5.38981        -0.000009     -0.003317     -0.004327
     12.37665      7.67674      5.39673        -0.003444     -0.002108     -0.000791
     -0.25038     10.85156      5.74954         0.001757     -0.001133      0.001595
      4.05970      4.80724      5.76780        -0.002581     -0.002434      0.003532
      7.30547     10.85182      5.75756        -0.000986     -0.004548     -0.005122
     11.60000      4.78318      5.78132         0.007092     -0.003282     -0.002931
      0.52824      5.97811      6.44615        -0.002704     -0.003142     -0.000509
      3.68937     12.05217      6.43160         0.004760      0.010426     -0.005268
      7.96429      5.99789      6.44567         0.004659      0.005705      0.004983
     11.19456     12.06801      6.43705         0.004313     -0.003008     -0.001771
      2.98977      9.11179      6.77377         0.001209     -0.014504      0.002886
      7.24201      3.02559      6.73838        -0.009376      0.005153     -0.012222
     10.53100      9.09701      6.78445        -0.006472      0.001464     -0.003273
     -0.19158      3.04736      6.74814         0.007151     -0.005325      0.012040
      3.48560      2.60029      6.97569        -0.006824     -0.011980      0.006495
      6.70509      8.64666      6.96654         0.001249      0.003695      0.005471
     11.01410      2.60071      7.09211        -0.000686      0.003912     -0.001800
     14.26265      8.64280      7.02264         0.008352      0.004899     -0.002840
      3.01917      6.73228      7.90036         0.000913      0.003499     -0.007454
      7.29128      0.62674      7.83200        -0.012002      0.000334     -0.003508
     10.46924      6.70306      7.84632        -0.007251     -0.001824     -0.002516
     14.89858      0.67006      7.87202        -0.002779      0.001709      0.000854
      2.22338      0.04435      7.92394         0.001440      0.004120     -0.003045
      5.48030      6.12757      8.00086        -0.002623      0.009618      0.001102
      8.64592     12.14452      8.00037         0.002701     -0.000980     -0.003434
     13.00851      6.07751      7.86488        -0.001760     -0.006296      0.000248
      1.73597      3.90147      8.42601        -0.000898     -0.001212      0.001737
      4.94836      9.95179      8.41425        -0.002962     -0.000777     -0.000645
      9.02034      3.77969      8.45666        -0.003551     -0.006623      0.002970
     12.54980     10.11880      8.29968        -0.003889      0.001383     -0.000750
      1.13479      9.71386      8.53664        -0.003472     -0.002581     -0.000687
      5.43254      3.62847      8.51712        -0.000611     -0.006396     -0.005582
      8.64717      9.63624      8.50943        -0.000427     -0.000116     -0.002307
     13.14147      3.57106      8.51933        -0.010551     -0.001699      0.006498
      0.40137      6.61184      8.98365         0.000228     -0.002420     -0.002830
      4.73256      0.51658      8.97798         0.005699     -0.000807      0.007283
      8.14175      6.54995      9.08259         0.011966     -0.002285     -0.007017
     12.28985      0.50927      8.98884         0.010249      0.008899      0.012042
     11.44599      8.11896      9.74128        -0.002568      0.008317      0.000149
     10.98080      5.01165      9.99703        -0.004346     -0.000264      0.000446
      9.60230      7.15841     11.94880        -0.006116     -0.011527      0.001782
     11.85973      8.71773     10.38488        -0.009445     -0.007574      0.003261
 -----------------------------------------------------------------------------------
    total drift:                               -0.194630     -0.190331     -0.015679


--------------------------------------------------------------------------------------------------------



  FREE ENERGIE OF THE ION-ELECTRON SYSTEM (eV)
  ---------------------------------------------------
  free  energy   TOTEN  =     -1299.77898121 eV

  energy  without entropy=    -1299.77898121  energy(sigma->0) =    -1299.77898121
 


--------------------------------------------------------------------------------------------------------


    POTLOK:  cpu time    0.7517: real time    0.7511


--------------------------------------------------------------------------------------------------------


     LOOP+:  cpu time  351.6732: real time  351.2375
    4ORBIT:  cpu time    0.0000: real time    0.0000

 total amount of memory used by VASP MPI-rank0    90853. kBytes
=======================================================================

   base      :      30000. kBytes
   nonlr-proj:       8294. kBytes
   fftplans  :       4220. kBytes
   grid      :      11656. kBytes
   one-center:        311. kBytes
   wavefun   :      36372. kBytes
 
  
  
 General timing and accounting informations for this job:
 ========================================================
  
                  Total CPU time used (sec):      431.274
                            User time (sec):      418.160
                          System time (sec):       13.113
                         Elapsed time (sec):      433.293
  
                   Maximum memory used (kb):      893996.
                   Average memory used (kb):           0.
  
                          Minor page faults:        57051
                          Major page faults:           62
                 Voluntary context switches:         5566
