       N       E                     dE             d eps       ncg     rms          rms(c)
DAV:   1    -0.137862164608E+04   -0.13786E+04   -0.13445E+00  6272   0.982E-01    0.955E-01
DAV:   2    -0.138037076245E+04   -0.17491E+01   -0.11980E+00  6080   0.951E-01    0.416E-01
DAV:   3    -0.138038049085E+04   -0.97284E-02   -0.43696E-02  6720   0.231E-01    0.280E-01
DAV:   4    -0.138038054080E+04   -0.49956E-04   -0.22628E-03  5536   0.587E-02    0.225E-01
DAV:   5    -0.138038055006E+04   -0.92529E-05   -0.19998E-04  6912   0.183E-02    0.190E-01
DAV:   6    -0.138038056259E+04   -0.12532E-04   -0.22172E-05  6976   0.709E-03    0.164E-01
DAV:   7    -0.138038057024E+04   -0.76524E-05   -0.23773E-05  6720   0.834E-03    0.130E-01
DAV:   8    -0.138038057544E+04   -0.51996E-05   -0.17428E-05  6944   0.656E-03    0.107E-01
DAV:   9    -0.138038057974E+04   -0.43034E-05   -0.48801E-06  7104   0.331E-03    0.923E-02
DAV:  10    -0.138038058499E+04   -0.52518E-05   -0.13980E-05  6624   0.643E-03    0.628E-02
DAV:  11    -0.138038058974E+04   -0.47496E-05   -0.39658E-05  6432   0.104E-02    0.197E-02
DAV:  12    -0.138038059120E+04   -0.14552E-05   -0.59924E-06  7008   0.318E-03    0.127E-02
DAV:  13    -0.138038059150E+04   -0.30597E-06   -0.88556E-07  6272   0.153E-03    0.623E-03
DAV:  14    -0.138038059153E+04   -0.28464E-07   -0.50070E-07  7360   0.966E-04    0.321E-03
DAV:  15    -0.138038059149E+04    0.39116E-07   -0.65064E-08  4576   0.436E-04    0.116E-03
DAV:  16    -0.138038059147E+04    0.23661E-07   -0.20629E-08  3136   0.273E-04    0.354E-04
DAV:  17    -0.138038059147E+04   -0.39145E-08   -0.15427E-08  3136   0.171E-04
   1 F= -.13998981E+04 E0= -.13998981E+04  d E =-.139990E+04  mag=     0.0000
       N       E                     dE             d eps       ncg     rms          rms(c)
DAV:   1    -0.138037983996E+04    0.75151E-03   -0.58022E-01  5120   0.891E-01    0.128E-01
DAV:   2    -0.138038015263E+04   -0.31267E-03   -0.50618E-03  5600   0.840E-02    0.938E-02
DAV:   3    -0.138038008063E+04    0.72007E-04   -0.57495E-04  6144   0.445E-02    0.355E-02
DAV:   4    -0.138038008745E+04   -0.68239E-05   -0.12180E-04  6016   0.162E-02    0.167E-02
DAV:   5    -0.138038008388E+04    0.35718E-05   -0.35516E-05  5824   0.936E-03    0.704E-03
DAV:   6    -0.138038008323E+04    0.64990E-06   -0.47073E-06  6464   0.346E-03    0.377E-03
DAV:   7    -0.138038008314E+04    0.86147E-07   -0.23228E-06  6368   0.223E-03    0.182E-03
DAV:   8    -0.138038008314E+04    0.26921E-08   -0.38771E-07  5920   0.116E-03    0.111E-03
DAV:   9    -0.138038008325E+04   -0.11105E-06   -0.20302E-07  5152   0.796E-04    0.620E-04
DAV:  10    -0.138038008339E+04   -0.14296E-06   -0.99379E-08  5568   0.619E-04    0.592E-04
DAV:  11    -0.138038008357E+04   -0.17256E-06   -0.71098E-08  5312   0.445E-04    0.280E-04
DAV:  12    -0.138038008377E+04   -0.20482E-06   -0.20188E-08  3872   0.302E-04    0.165E-04
DAV:  13    -0.138038008395E+04   -0.17988E-06   -0.17874E-08  3968   0.193E-04    0.186E-04
DAV:  14    -0.138038008409E+04   -0.13549E-06   -0.93773E-09  3584   0.138E-04    0.819E-05
DAV:  15    -0.138038008421E+04   -0.12647E-06   -0.77284E-09  3392   0.100E-04    0.712E-05
DAV:  16    -0.138038008425E+04   -0.41400E-07   -0.17984E-09  3072   0.516E-05    0.575E-05
DAV:  17    -0.138038008431E+04   -0.60201E-07   -0.25913E-09  3072   0.555E-05    0.237E-05
DAV:  18    -0.138038008434E+04   -0.28696E-07   -0.13780E-09  3072   0.420E-05    0.294E-05
DAV:  19    -0.138038008436E+04   -0.19572E-07   -0.88870E-10  3072   0.306E-05    0.286E-05
DAV:  20    -0.138038008437E+04   -0.99390E-08   -0.48718E-10  3072   0.247E-05
   2 F= -.13998975E+04 E0= -.13998975E+04  d E =0.633672E-03  mag=    -0.0000
       N       E                     dE             d eps       ncg     rms          rms(c)
DAV:   1    -0.138037961873E+04    0.46563E-03   -0.11605E+00  5120   0.125E+00    0.141E-01
DAV:   2    -0.138038039901E+04   -0.78028E-03   -0.10404E-02  5600   0.112E-01    0.945E-02
DAV:   3    -0.138038029870E+04    0.10031E-03   -0.83420E-04  6368   0.414E-02    0.479E-02
DAV:   4    -0.138038028814E+04    0.10556E-04   -0.21594E-04  5632   0.232E-02    0.177E-02
DAV:   5    -0.138038028460E+04    0.35408E-05   -0.59992E-05  5568   0.122E-02    0.931E-03
DAV:   6    -0.138038028483E+04   -0.22606E-06   -0.11220E-05  6016   0.384E-03    0.565E-03
DAV:   7    -0.138038028446E+04    0.36688E-06   -0.30967E-06  6528   0.266E-03    0.295E-03
DAV:   8    -0.138038028452E+04   -0.60914E-07   -0.80634E-07  6208   0.153E-03    0.192E-03
DAV:   9    -0.138038028458E+04   -0.57364E-07   -0.32988E-07  6496   0.953E-04    0.748E-04
DAV:  10    -0.138038028474E+04   -0.16320E-06   -0.87475E-08  5088   0.503E-04    0.403E-04
DAV:  11    -0.138038028494E+04   -0.19847E-06   -0.28987E-08  4352   0.390E-04    0.310E-04
DAV:  12    -0.138038028515E+04   -0.21172E-06   -0.35003E-08  4608   0.343E-04    0.153E-04
DAV:  13    -0.138038028533E+04   -0.17516E-06   -0.14894E-08  3968   0.201E-04    0.110E-04
DAV:  14    -0.138038028545E+04   -0.11631E-06   -0.42570E-09  3072   0.104E-04    0.682E-05
DAV:  15    -0.138038028556E+04   -0.11003E-06   -0.67971E-09  3296   0.894E-05    0.451E-05
DAV:  16    -0.138038028562E+04   -0.60783E-07   -0.30822E-09  3072   0.576E-05    0.314E-05
DAV:  17    -0.138038028565E+04   -0.30268E-07   -0.16965E-09  3072   0.410E-05    0.198E-05
DAV:  18    -0.138038028568E+04   -0.32422E-07   -0.16734E-09  3072   0.405E-05    0.200E-05
DAV:  19    -0.138038028569E+04   -0.10463E-07   -0.77147E-10  3072   0.302E-05    0.152E-05
DAV:  20    -0.138038028570E+04   -0.78435E-08   -0.46578E-10  3072   0.296E-05
   3 F= -.13998979E+04 E0= -.13998979E+04  d E =-.400088E-03  mag=    -0.0000
       N       E                     dE             d eps       ncg     rms          rms(c)
DAV:   1    -0.138037985774E+04    0.42795E-03   -0.11540E+00  5120   0.126E+00    0.129E-01
DAV:   2    -0.138038039411E+04   -0.53637E-03   -0.93857E-03  5760   0.115E-01    0.921E-02
DAV:   3    -0.138038026295E+04    0.13116E-03   -0.98545E-04  6368   0.472E-02    0.447E-02
DAV:   4    -0.138038026095E+04    0.19998E-05   -0.18242E-04  5984   0.196E-02    0.187E-02
DAV:   5    -0.138038025778E+04    0.31697E-05   -0.41513E-05  5504   0.109E-02    0.866E-03
DAV:   6    -0.138038025772E+04    0.54235E-07   -0.60069E-06  5632   0.351E-03    0.425E-03
DAV:   7    -0.138038025785E+04   -0.12212E-06   -0.31762E-06  6400   0.281E-03    0.244E-03
DAV:   8    -0.138038025797E+04   -0.12122E-06   -0.67933E-07  6176   0.132E-03    0.132E-03
DAV:   9    -0.138038025823E+04   -0.25990E-06   -0.24936E-07  5600   0.884E-04    0.663E-04
DAV:  10    -0.138038025853E+04   -0.30146E-06   -0.97923E-08  5568   0.661E-04    0.507E-04
DAV:  11    -0.138038025879E+04   -0.26496E-06   -0.67133E-08  5248   0.486E-04    0.252E-04
DAV:  12    -0.138038025911E+04   -0.31831E-06   -0.19432E-08  3808   0.341E-04    0.187E-04
DAV:  13    -0.138038025931E+04   -0.19431E-06   -0.21304E-08  3936   0.221E-04    0.149E-04
DAV:  14    -0.138038025944E+04   -0.13017E-06   -0.69069E-09  3296   0.117E-04    0.884E-05
DAV:  15    -0.138038025960E+04   -0.16064E-06   -0.78305E-09  3296   0.109E-04    0.632E-05
DAV:  16    -0.138038025965E+04   -0.54468E-07   -0.32850E-09  3072   0.685E-05    0.511E-05
DAV:  17    -0.138038025972E+04   -0.71857E-07   -0.37494E-09  3072   0.755E-05    0.366E-05
DAV:  18    -0.138038025976E+04   -0.35070E-07   -0.24681E-09  3072   0.643E-05    0.400E-05
DAV:  19    -0.138038025978E+04   -0.17797E-07   -0.14639E-09  3072   0.540E-05    0.241E-05
DAV:  20    -0.138038025979E+04   -0.17972E-07   -0.14180E-09  3072   0.559E-05    0.270E-05
DAV:  21    -0.138038025980E+04   -0.52532E-08   -0.57118E-10  3072   0.328E-05
   4 F= -.13998981E+04 E0= -.13998981E+04  d E =-.193188E-03  mag=     0.0000
       N       E                     dE             d eps       ncg     rms          rms(c)
DAV:   1    -0.138037936313E+04    0.89666E-03   -0.11544E+00  5120   0.126E+00    0.186E-01
DAV:   2    -0.138038033122E+04   -0.96809E-03   -0.12795E-02  5600   0.126E-01    0.150E-01
DAV:   3    -0.138038015147E+04    0.17976E-03   -0.11358E-03  6496   0.539E-02    0.896E-02
DAV:   4    -0.138038013621E+04    0.15252E-04   -0.55486E-04  5856   0.419E-02    0.257E-02
DAV:   5    -0.138038012300E+04    0.13215E-04   -0.16152E-04  5664   0.222E-02    0.152E-02
DAV:   6    -0.138038012397E+04   -0.96536E-06   -0.53184E-05  6048   0.917E-03    0.970E-03
DAV:   7    -0.138038012289E+04    0.10766E-05   -0.10814E-05  6592   0.515E-03    0.420E-03
DAV:   8    -0.138038012340E+04   -0.50744E-06   -0.36104E-06  5792   0.324E-03    0.359E-03
DAV:   9    -0.138038012359E+04   -0.19844E-06   -0.85571E-07  6688   0.163E-03    0.167E-03
DAV:  10    -0.138038012434E+04   -0.74270E-06   -0.66381E-07  5568   0.140E-03    0.956E-04
DAV:  11    -0.138038012505E+04   -0.71267E-06   -0.17568E-07  5984   0.897E-04    0.907E-04
DAV:  12    -0.138038012565E+04   -0.60475E-06   -0.13404E-07  5040   0.582E-04    0.360E-04
DAV:  13    -0.138038012618E+04   -0.52936E-06   -0.29327E-08  4128   0.331E-04    0.188E-04
DAV:  14    -0.138038012663E+04   -0.44881E-06   -0.31572E-08  4320   0.311E-04    0.166E-04
DAV:  15    -0.138038012697E+04   -0.33661E-06   -0.18420E-08  3968   0.168E-04    0.124E-04
DAV:  16    -0.138038012723E+04   -0.26348E-06   -0.90123E-09  3328   0.110E-04    0.714E-05
DAV:  17    -0.138038012734E+04   -0.11073E-06   -0.38123E-09  3072   0.726E-05    0.414E-05
DAV:  18    -0.138038012742E+04   -0.79992E-07   -0.32749E-09  3072   0.609E-05    0.279E-05
DAV:  19    -0.138038012748E+04   -0.56461E-07   -0.31706E-09  3072   0.535E-05    0.393E-05
DAV:  20    -0.138038012749E+04   -0.12311E-07   -0.12949E-09  3136   0.410E-05    0.344E-05
DAV:  21    -0.138038012750E+04   -0.10303E-07   -0.67794E-10  3072   0.328E-05    0.161E-05
DAV:  22    -0.138038012751E+04   -0.32451E-08   -0.30860E-10  3072   0.262E-05
   5 F= -.13998976E+04 E0= -.13998976E+04  d E =0.465907E-03  mag=     0.0000
       N       E                     dE             d eps       ncg     rms          rms(c)
DAV:   1    -0.138037948332E+04    0.64418E-03   -0.11514E+00  5120   0.111E+00    0.976E-02
DAV:   2    -0.138038017039E+04   -0.68707E-03   -0.91584E-03  5760   0.897E-02    0.640E-02
DAV:   3    -0.138038007201E+04    0.98380E-04   -0.67993E-04  5920   0.297E-02    0.301E-02
DAV:   4    -0.138038005610E+04    0.15905E-04   -0.13295E-04  5632   0.137E-02    0.129E-02
DAV:   5    -0.138038005614E+04   -0.33062E-07   -0.20391E-05  5632   0.646E-03    0.685E-03
DAV:   6    -0.138038005583E+04    0.30476E-06   -0.37279E-06  5504   0.243E-03    0.273E-03
DAV:   7    -0.138038005626E+04   -0.43100E-06   -0.12013E-06  7168   0.157E-03    0.143E-03
DAV:   8    -0.138038005663E+04   -0.37201E-06   -0.25040E-07  6208   0.683E-04    0.789E-04
DAV:   9    -0.138038005728E+04   -0.64634E-06   -0.65757E-08  4608   0.356E-04    0.444E-04
DAV:  10    -0.138038005798E+04   -0.70373E-06   -0.65627E-08  4640   0.359E-04    0.227E-04
DAV:  11    -0.138038005858E+04   -0.59733E-06   -0.40573E-08  4224   0.247E-04    0.150E-04
DAV:  12    -0.138038005897E+04   -0.38533E-06   -0.17416E-08  4000   0.130E-04    0.104E-04
DAV:  13    -0.138038005928E+04   -0.31495E-06   -0.12874E-08  3712   0.940E-05    0.629E-05
DAV:  14    -0.138038005944E+04   -0.16083E-06   -0.50908E-09  3232   0.640E-05    0.435E-05
DAV:  15    -0.138038005959E+04   -0.15191E-06   -0.76037E-09  3424   0.707E-05    0.363E-05
DAV:  16    -0.138038005963E+04   -0.33106E-07   -0.14263E-09  3072   0.510E-05    0.290E-05
DAV:  17    -0.138038005966E+04   -0.36234E-07   -0.13120E-09  3008   0.448E-05    0.120E-05
DAV:  18    -0.138038005969E+04   -0.25961E-07   -0.11793E-09  3072   0.477E-05    0.137E-05
DAV:  19    -0.138038005970E+04   -0.86584E-08   -0.44123E-10  3040   0.284E-05
   6 F= -.13998975E+04 E0= -.13998975E+04  d E =0.135283E-03  mag=     0.0000
       N       E                     dE             d eps       ncg     rms          rms(c)
DAV:   1    -0.138037942746E+04    0.63223E-03   -0.11596E+00  5120   0.113E+00    0.183E-01
DAV:   2    -0.138038001574E+04   -0.58828E-03   -0.99515E-03  5664   0.112E-01    0.158E-01
DAV:   3    -0.138037988420E+04    0.13154E-03   -0.11491E-03  6336   0.533E-02    0.800E-02
DAV:   4    -0.138037986641E+04    0.17793E-04   -0.32454E-04  5696   0.325E-02    0.214E-02
DAV:   5    -0.138037986030E+04    0.61089E-05   -0.15318E-04  5472   0.230E-02    0.115E-02
DAV:   6    -0.138037986085E+04   -0.54225E-06   -0.24385E-05  5696   0.624E-03    0.604E-03
DAV:   7    -0.138037986158E+04   -0.73636E-06   -0.44058E-06  6784   0.340E-03    0.383E-03
DAV:   8    -0.138037986339E+04   -0.18071E-05   -0.12460E-06  6160   0.216E-03    0.221E-03
DAV:   9    -0.138037986533E+04   -0.19455E-05   -0.56929E-07  6592   0.138E-03    0.127E-03
DAV:  10    -0.138037986714E+04   -0.18044E-05   -0.32799E-07  5280   0.870E-04    0.772E-04
DAV:  11    -0.138037986917E+04   -0.20318E-05   -0.17210E-07  5632   0.561E-04    0.548E-04
DAV:  12    -0.138037987082E+04   -0.16546E-05   -0.12456E-07  5280   0.529E-04    0.303E-04
DAV:  13    -0.138037987203E+04   -0.12066E-05   -0.74318E-08  4480   0.284E-04    0.244E-04
DAV:  14    -0.138037987286E+04   -0.82579E-06   -0.36673E-08  4192   0.178E-04    0.143E-04
DAV:  15    -0.138037987340E+04   -0.54282E-06   -0.20176E-08  3872   0.119E-04    0.936E-05
DAV:  16    -0.138037987378E+04   -0.37509E-06   -0.14697E-08  3744   0.106E-04    0.781E-05
DAV:  17    -0.138037987397E+04   -0.19076E-06   -0.44288E-09  3168   0.761E-05    0.743E-05
DAV:  18    -0.138037987408E+04   -0.11033E-06   -0.43353E-09  3232   0.728E-05    0.404E-05
DAV:  19    -0.138037987412E+04   -0.46726E-07   -0.20673E-09  3136   0.604E-05    0.307E-05
DAV:  20    -0.138037987416E+04   -0.39494E-07   -0.13416E-09  3072   0.423E-05    0.428E-05
DAV:  21    -0.138037987418E+04   -0.17113E-07   -0.46248E-10  3072   0.289E-05    0.336E-05
DAV:  22    -0.138037987419E+04   -0.13693E-07   -0.51249E-10  3072   0.383E-05    0.118E-05
DAV:  23    -0.138037987420E+04   -0.43510E-08   -0.12888E-10  3136   0.225E-05
   7 F= -.13998977E+04 E0= -.13998977E+04  d E =-.189868E-03  mag=    -0.0000
       N       E                     dE             d eps       ncg     rms          rms(c)
DAV:   1    -0.138037930817E+04    0.56602E-03   -0.11541E+00  5120   0.116E+00    0.180E-01
DAV:   2    -0.138038032182E+04   -0.10136E-02   -0.12605E-02  5664   0.113E-01    0.143E-01
DAV:   3    -0.138038016763E+04    0.15419E-03   -0.10964E-03  6528   0.508E-02    0.819E-02
DAV:   4    -0.138038014877E+04    0.18857E-04   -0.53696E-04  5984   0.398E-02    0.274E-02
DAV:   5    -0.138038013410E+04    0.14672E-04   -0.21663E-04  5664   0.257E-02    0.129E-02
DAV:   6    -0.138038013548E+04   -0.13852E-05   -0.35629E-05  5696   0.721E-03    0.812E-03
DAV:   7    -0.138038013571E+04   -0.22892E-06   -0.82686E-06  6784   0.413E-03    0.459E-03
DAV:   8    -0.138038013645E+04   -0.73305E-06   -0.21211E-06  6048   0.257E-03    0.347E-03
DAV:   9    -0.138038013814E+04   -0.16941E-05   -0.12130E-06  6496   0.214E-03    0.980E-04
DAV:  10    -0.138038014001E+04   -0.18681E-05   -0.51196E-07  5440   0.107E-03    0.128E-03
DAV:  11    -0.138038014128E+04   -0.12737E-05   -0.14537E-07  5792   0.545E-04    0.766E-04
DAV:  12    -0.138038014362E+04   -0.23391E-05   -0.23283E-07  5328   0.684E-04    0.408E-04
DAV:  13    -0.138038014501E+04   -0.13867E-05   -0.80248E-08  4736   0.369E-04    0.269E-04
DAV:  14    -0.138038014587E+04   -0.86434E-06   -0.35295E-08  4288   0.207E-04    0.167E-04
DAV:  15    -0.138038014665E+04   -0.77953E-06   -0.19006E-08  3520   0.121E-04    0.952E-05
DAV:  16    -0.138038014723E+04   -0.57623E-06   -0.18316E-08  3808   0.114E-04    0.636E-05
DAV:  17    -0.138038014748E+04   -0.24967E-06   -0.41484E-09  3104   0.771E-05    0.446E-05
DAV:  18    -0.138038014761E+04   -0.13049E-06   -0.27714E-09  3072   0.494E-05    0.404E-05
DAV:  19    -0.138038014770E+04   -0.87122E-07   -0.22125E-09  3072   0.476E-05    0.242E-05
DAV:  20    -0.138038014774E+04   -0.41284E-07   -0.18291E-09  3072   0.448E-05    0.267E-05
DAV:  21    -0.138038014775E+04   -0.11161E-07   -0.78613E-10  3136   0.346E-05    0.228E-05
DAV:  22    -0.138038014776E+04   -0.88185E-08   -0.39428E-10  3072   0.269E-05
   8 F= -.13998977E+04 E0= -.13998977E+04  d E =0.261950E-04  mag=     0.0000
       N       E                     dE             d eps       ncg     rms          rms(c)
DAV:   1    -0.138037906736E+04    0.10804E-02   -0.11701E+00  5120   0.114E+00    0.323E-01
DAV:   2    -0.138037973393E+04   -0.66658E-03   -0.11168E-02  5824   0.123E-01    0.267E-01
DAV:   3    -0.138037958797E+04    0.14597E-03   -0.29753E-03  5952   0.109E-01    0.599E-02
DAV:   4    -0.138037955570E+04    0.32266E-04   -0.74292E-04  5952   0.413E-02    0.363E-02
DAV:   5    -0.138037954121E+04    0.14495E-04   -0.16326E-04  6112   0.206E-02    0.164E-02
DAV:   6    -0.138037954010E+04    0.11063E-05   -0.32092E-05  6528   0.843E-03    0.676E-03
DAV:   7    -0.138037954102E+04   -0.91597E-06   -0.36494E-06  6976   0.262E-03    0.336E-03
DAV:   8    -0.138037954270E+04   -0.16818E-05   -0.73690E-07  6496   0.131E-03    0.139E-03
DAV:   9    -0.138037954459E+04   -0.18914E-05   -0.27317E-07  5600   0.750E-04    0.848E-04
DAV:  10    -0.138037954670E+04   -0.21053E-05   -0.14163E-07  4928   0.524E-04    0.525E-04
DAV:  11    -0.138037954878E+04   -0.20831E-05   -0.12695E-07  4736   0.483E-04    0.313E-04
DAV:  12    -0.138037955056E+04   -0.17830E-05   -0.99860E-08  4512   0.323E-04    0.263E-04
DAV:  13    -0.138037955178E+04   -0.12190E-05   -0.45791E-08  4128   0.198E-04    0.164E-04
DAV:  14    -0.138037955240E+04   -0.62051E-06   -0.19390E-08  3744   0.121E-04    0.120E-04
DAV:  15    -0.138037955277E+04   -0.36914E-06   -0.83412E-09  3360   0.949E-05    0.669E-05
DAV:  16    -0.138037955300E+04   -0.23427E-06   -0.54040E-09  3104   0.887E-05    0.494E-05
DAV:  17    -0.138037955317E+04   -0.16089E-06   -0.66840E-09  3200   0.953E-05    0.468E-05
DAV:  18    -0.138037955321E+04   -0.46071E-07   -0.26244E-09  3072   0.729E-05    0.310E-05
DAV:  19    -0.138037955326E+04   -0.52300E-07   -0.20886E-09  3008   0.565E-05    0.323E-05
DAV:  20    -0.138037955328E+04   -0.15789E-07   -0.88209E-10  3072   0.391E-05    0.317E-05
DAV:  21    -0.138037955329E+04   -0.60099E-08   -0.24377E-10  3072   0.246E-05
   9 F= -.13998971E+04 E0= -.13998971E+04  d E =0.542798E-03  mag=     0.0000
       N       E                     dE             d eps       ncg     rms          rms(c)
DAV:   1    -0.138037942501E+04    0.12827E-03   -0.11471E+00  5120   0.113E+00    0.243E-01
DAV:   2    -0.138038042787E+04   -0.10029E-02   -0.12696E-02  5760   0.104E-01    0.180E-01
DAV:   3    -0.138038023524E+04    0.19262E-03   -0.14279E-03  6432   0.557E-02    0.830E-02
DAV:   4    -0.138038022105E+04    0.14191E-04   -0.34776E-04  5760   0.225E-02    0.332E-02
DAV:   5    -0.138038021388E+04    0.71736E-05   -0.16789E-04  6144   0.207E-02    0.131E-02
DAV:   6    -0.138038021636E+04   -0.24805E-05   -0.23815E-05  5600   0.632E-03    0.638E-03
DAV:   7    -0.138038022263E+04   -0.62678E-05   -0.77397E-06  6912   0.389E-03    0.326E-03
DAV:   8    -0.138038022639E+04   -0.37659E-05   -0.10425E-06  6016   0.151E-03    0.198E-03
DAV:   9    -0.138038023378E+04   -0.73842E-05   -0.12367E-06  5312   0.158E-03    0.147E-03
DAV:  10    -0.138038024032E+04   -0.65385E-05   -0.56679E-07  6048   0.833E-04    0.143E-03
DAV:  11    -0.138038024625E+04   -0.59333E-05   -0.80984E-07  5664   0.995E-04    0.588E-04
DAV:  12    -0.138038025052E+04   -0.42714E-05   -0.35629E-07  5024   0.608E-04    0.748E-04
DAV:  13    -0.138038025245E+04   -0.19323E-05   -0.10472E-07  5056   0.299E-04    0.396E-04
DAV:  14    -0.138038025449E+04   -0.20368E-05   -0.11312E-07  4544   0.267E-04    0.198E-04
DAV:  15    -0.138038025540E+04   -0.91050E-06   -0.29401E-08  4448   0.133E-04    0.149E-04
DAV:  16    -0.138038025605E+04   -0.65303E-06   -0.20611E-08  3936   0.124E-04    0.117E-04
DAV:  17    -0.138038025644E+04   -0.38720E-06   -0.11179E-08  3648   0.968E-05    0.816E-05
DAV:  18    -0.138038025658E+04   -0.14094E-06   -0.35311E-09  3072   0.815E-05    0.305E-05
DAV:  19    -0.138038025667E+04   -0.86919E-07   -0.35297E-09  3136   0.867E-05    0.369E-05
DAV:  20    -0.138038025672E+04   -0.47716E-07   -0.21056E-09  3072   0.635E-05    0.446E-05
DAV:  21    -0.138038025674E+04   -0.21479E-07   -0.61802E-10  3136   0.353E-05    0.275E-05
DAV:  22    -0.138038025676E+04   -0.21304E-07   -0.67824E-10  3008   0.415E-05    0.236E-05
DAV:  23    -0.138038025677E+04   -0.49913E-08   -0.12301E-10  3008   0.216E-05
  10 F= -.13998980E+04 E0= -.13998980E+04  d E =-.846706E-03  mag=    -0.0000
       N       E                     dE             d eps       ncg     rms          rms(c)
DAV:   1    -0.138037960164E+04    0.65512E-03   -0.61147E-01  5120   0.839E-01    0.144E-01
DAV:   2    -0.138038010072E+04   -0.49907E-03   -0.75173E-03  5856   0.833E-02    0.964E-02
DAV:   3    -0.138037998774E+04    0.11298E-03   -0.80029E-04  6336   0.389E-02    0.547E-02
DAV:   4    -0.138037997545E+04    0.12292E-04   -0.21568E-04  5664   0.212E-02    0.214E-02
DAV:   5    -0.138037996944E+04    0.60078E-05   -0.76527E-05  5504   0.142E-02    0.932E-03
DAV:   6    -0.138037996911E+04    0.33311E-06   -0.11682E-05  5760   0.456E-03    0.484E-03
DAV:   7    -0.138037996995E+04   -0.84050E-06   -0.30994E-06  6320   0.264E-03    0.277E-03
DAV:   8    -0.138037997123E+04   -0.12765E-05   -0.44827E-07  6176   0.121E-03    0.150E-03
DAV:   9    -0.138037997381E+04   -0.25873E-05   -0.37080E-07  5312   0.125E-03    0.734E-04
DAV:  10    -0.138037997632E+04   -0.25064E-05   -0.27697E-07  5664   0.788E-04    0.656E-04
DAV:  11    -0.138037997910E+04   -0.27803E-05   -0.21250E-07  4736   0.568E-04    0.342E-04
DAV:  12    -0.138037998064E+04   -0.15393E-05   -0.97941E-08  5120   0.342E-04    0.337E-04
DAV:  13    -0.138037998172E+04   -0.10851E-05   -0.38645E-08  4000   0.231E-04    0.181E-04
DAV:  14    -0.138037998269E+04   -0.96943E-06   -0.26492E-08  4096   0.150E-04    0.142E-04
DAV:  15    -0.138037998332E+04   -0.62474E-06   -0.15357E-08  3680   0.117E-04    0.896E-05
DAV:  16    -0.138037998366E+04   -0.34083E-06   -0.54957E-09  3200   0.751E-05    0.523E-05
DAV:  17    -0.138037998389E+04   -0.23434E-06   -0.47728E-09  3136   0.610E-05    0.384E-05
DAV:  18    -0.138037998401E+04   -0.11503E-06   -0.28432E-09  3072   0.543E-05    0.279E-05
DAV:  19    -0.138037998405E+04   -0.38242E-07   -0.16935E-09  3136   0.467E-05    0.203E-05
DAV:  20    -0.138037998406E+04   -0.15774E-07   -0.91482E-10  3072   0.447E-05    0.148E-05
DAV:  21    -0.138037998407E+04   -0.89494E-08   -0.46304E-10  3008   0.338E-05
  11 F= -.13998976E+04 E0= -.13998976E+04  d E =0.365689E-03  mag=     0.0000
       N       E                     dE             d eps       ncg     rms          rms(c)
DAV:   1    -0.138038044487E+04   -0.46081E-03   -0.76422E-02  5152   0.193E-01    0.102E-01
DAV:   2    -0.138038037992E+04    0.64951E-04   -0.70651E-04  5248   0.199E-02    0.578E-02
DAV:   3    -0.138038036472E+04    0.15200E-04   -0.31202E-04  5344   0.118E-02    0.169E-02
DAV:   4    -0.138038035950E+04    0.52249E-05   -0.32457E-05  5056   0.392E-03    0.100E-02
DAV:   5    -0.138038035902E+04    0.47610E-06   -0.11020E-05  5152   0.237E-03    0.190E-03
DAV:   6    -0.138038035906E+04   -0.42623E-07   -0.79586E-07  5056   0.818E-04    0.969E-04
DAV:   7    -0.138038035907E+04   -0.81200E-08   -0.10883E-07  4672   0.272E-04    0.538E-04
DAV:   8    -0.138038035913E+04   -0.57189E-07   -0.22492E-08  3744   0.178E-04    0.206E-04
DAV:   9    -0.138038035918E+04   -0.53129E-07   -0.85573E-09  3424   0.117E-04    0.122E-04
DAV:  10    -0.138038035925E+04   -0.71610E-07   -0.61252E-09  3264   0.105E-04    0.923E-05
DAV:  11    -0.138038035931E+04   -0.53682E-07   -0.34162E-09  3072   0.833E-05    0.644E-05
DAV:  12    -0.138038035937E+04   -0.65716E-07   -0.53209E-09  3104   0.991E-05    0.447E-05
DAV:  13    -0.138038035942E+04   -0.44616E-07   -0.51792E-09  3136   0.103E-04    0.360E-05
DAV:  14    -0.138038035945E+04   -0.29700E-07   -0.42961E-09  2992   0.951E-05    0.263E-05
DAV:  15    -0.138038035947E+04   -0.19339E-07   -0.24922E-09  3072   0.653E-05    0.271E-05
DAV:  16    -0.138038035948E+04   -0.95897E-08   -0.99511E-10  3136   0.354E-05
  12 F= -.13998979E+04 E0= -.13998979E+04  d E =-.243838E-03  mag=     0.0000
       N       E                     dE             d eps       ncg     rms          rms(c)
DAV:   1    -0.138037995868E+04    0.40078E-03   -0.75905E-02  5088   0.191E-01    0.970E-02
DAV:   2    -0.138037991952E+04    0.39166E-04   -0.65879E-04  5376   0.192E-02    0.562E-02
DAV:   3    -0.138037990888E+04    0.10638E-04   -0.27354E-04  5568   0.112E-02    0.154E-02
DAV:   4    -0.138037990406E+04    0.48210E-05   -0.31877E-05  5536   0.382E-03    0.915E-03
DAV:   5    -0.138037990357E+04    0.48954E-06   -0.10678E-05  5088   0.215E-03    0.176E-03
DAV:   6    -0.138037990360E+04   -0.33295E-07   -0.70849E-07  4816   0.713E-04    0.903E-04
DAV:   7    -0.138037990361E+04   -0.13693E-07   -0.98418E-08  4640   0.273E-04    0.420E-04
DAV:   8    -0.138037990368E+04   -0.62952E-07   -0.22950E-08  3680   0.156E-04    0.208E-04
DAV:   9    -0.138037990373E+04   -0.55967E-07   -0.61807E-09  3264   0.104E-04    0.108E-04
DAV:  10    -0.138037990380E+04   -0.63505E-07   -0.58151E-09  3312   0.977E-05    0.703E-05
DAV:  11    -0.138037990385E+04   -0.51616E-07   -0.31843E-09  3072   0.837E-05    0.572E-05
DAV:  12    -0.138037990390E+04   -0.54322E-07   -0.41490E-09  3104   0.881E-05    0.287E-05
DAV:  13    -0.138037990393E+04   -0.32480E-07   -0.32631E-09  3072   0.837E-05    0.262E-05
DAV:  14    -0.138037990396E+04   -0.23661E-07   -0.17836E-09  3008   0.486E-05    0.200E-05
DAV:  15    -0.138037990398E+04   -0.23778E-07   -0.12301E-09  3008   0.349E-05    0.190E-05
DAV:  16    -0.138037990399E+04   -0.53551E-08   -0.52798E-10  3040   0.265E-05
  13 F= -.13998971E+04 E0= -.13998971E+04  d E =0.750127E-03  mag=    -0.0000
       N       E                     dE             d eps       ncg     rms          rms(c)
DAV:   1    -0.138037989585E+04    0.81276E-05   -0.81088E-02  5056   0.204E-01    0.121E-01
DAV:   2    -0.138037979855E+04    0.97301E-04   -0.14404E-03  5312   0.282E-02    0.718E-02
DAV:   3    -0.138037976288E+04    0.35669E-04   -0.75652E-04  5408   0.186E-02    0.256E-02
DAV:   4    -0.138037974958E+04    0.13310E-04   -0.10456E-04  5248   0.653E-03    0.171E-02
DAV:   5    -0.138037974772E+04    0.18580E-05   -0.22570E-05  5600   0.324E-03    0.515E-03
DAV:   6    -0.138037974740E+04    0.31287E-06   -0.36147E-06  4992   0.139E-03    0.128E-03
DAV:   7    -0.138037974753E+04   -0.12145E-06   -0.55651E-07  5136   0.536E-04    0.894E-04
DAV:   8    -0.138037974764E+04   -0.11877E-06   -0.51424E-08  3904   0.227E-04    0.489E-04
DAV:   9    -0.138037974779E+04   -0.14210E-06   -0.31081E-08  3936   0.190E-04    0.177E-04
DAV:  10    -0.138037974794E+04   -0.15598E-06   -0.11883E-08  3552   0.129E-04    0.170E-04
DAV:  11    -0.138037974805E+04   -0.10998E-06   -0.46877E-09  3136   0.964E-05    0.103E-04
DAV:  12    -0.138037974818E+04   -0.12784E-06   -0.93478E-09  3552   0.112E-04    0.714E-05
DAV:  13    -0.138037974826E+04   -0.79774E-07   -0.53832E-09  3104   0.113E-04    0.683E-05
DAV:  14    -0.138037974831E+04   -0.45722E-07   -0.49075E-09  3072   0.105E-04    0.408E-05
DAV:  15    -0.138037974832E+04   -0.16633E-07   -0.29043E-09  3072   0.854E-05    0.408E-05
DAV:  16    -0.138037974834E+04   -0.14858E-07   -0.16896E-09  3008   0.603E-05    0.240E-05
DAV:  17    -0.138037974835E+04   -0.10405E-07   -0.84550E-10  3008   0.363E-05    0.226E-05
DAV:  18    -0.138037974835E+04   -0.15425E-08   -0.26694E-10  2880   0.225E-05
  14 F= -.13998973E+04 E0= -.13998973E+04  d E =-.150213E-03  mag=     0.0000
       N       E                     dE             d eps       ncg     rms          rms(c)
DAV:   1    -0.138038046879E+04   -0.72044E-03   -0.78666E-02  4416   0.193E-01    0.110E-01
DAV:   2    -0.138038037958E+04    0.89208E-04   -0.90670E-04  4928   0.214E-02    0.633E-02
DAV:   3    -0.138038035376E+04    0.25819E-04   -0.45698E-04  4800   0.134E-02    0.203E-02
DAV:   4    -0.138038034562E+04    0.81410E-05   -0.47829E-05  4736   0.456E-03    0.130E-02
DAV:   5    -0.138038034485E+04    0.77166E-06   -0.14302E-05  5120   0.254E-03    0.298E-03
DAV:   6    -0.138038034503E+04   -0.17970E-06   -0.14569E-06  5120   0.866E-04    0.106E-03
DAV:   7    -0.138038034545E+04   -0.42423E-06   -0.26211E-07  4800   0.340E-04    0.791E-04
DAV:   8    -0.138038034583E+04   -0.37858E-06   -0.33841E-08  3904   0.157E-04    0.330E-04
DAV:   9    -0.138038034625E+04   -0.41738E-06   -0.29260E-08  4000   0.121E-04    0.179E-04
DAV:  10    -0.138038034659E+04   -0.33564E-06   -0.10218E-08  3712   0.946E-05    0.100E-04
DAV:  11    -0.138038034689E+04   -0.30074E-06   -0.10996E-08  3776   0.908E-05    0.646E-05
DAV:  12    -0.138038034713E+04   -0.24168E-06   -0.94753E-09  3680   0.103E-04    0.500E-05
DAV:  13    -0.138038034723E+04   -0.10684E-06   -0.46942E-09  3168   0.980E-05    0.381E-05
DAV:  14    -0.138038034733E+04   -0.99535E-07   -0.44780E-09  3136   0.794E-05    0.244E-05
DAV:  15    -0.138038034740E+04   -0.60681E-07   -0.27761E-09  3072   0.593E-05    0.243E-05
DAV:  16    -0.138038034741E+04   -0.19383E-07   -0.12118E-09  3072   0.412E-05    0.161E-05
DAV:  17    -0.138038034744E+04   -0.27299E-07   -0.82521E-10  3040   0.356E-05    0.215E-05
DAV:  18    -0.138038034745E+04   -0.81636E-08   -0.31207E-10  3040   0.222E-05
  15 F= -.13998980E+04 E0= -.13998980E+04  d E =-.704687E-03  mag=     0.0000
       N       E                     dE             d eps       ncg     rms          rms(c)
DAV:   1    -0.138037988175E+04    0.46570E-03   -0.74561E-02  4416   0.190E-01    0.902E-02
DAV:   2    -0.138037986364E+04    0.18102E-04   -0.61677E-04  4608   0.165E-02    0.531E-02
DAV:   3    -0.138037985667E+04    0.69727E-05   -0.22135E-04  5536   0.944E-03    0.136E-02
DAV:   4    -0.138037985303E+04    0.36430E-05   -0.24985E-05  4992   0.322E-03    0.829E-03
DAV:   5    -0.138037985270E+04    0.33126E-06   -0.92805E-06  4896   0.193E-03    0.165E-03
DAV:   6    -0.138037985285E+04   -0.15010E-06   -0.64309E-07  4640   0.577E-04    0.838E-04
DAV:   7    -0.138037985305E+04   -0.20328E-06   -0.10088E-07  4480   0.252E-04    0.359E-04
DAV:   8    -0.138037985326E+04   -0.21409E-06   -0.26945E-08  3808   0.135E-04    0.220E-04
DAV:   9    -0.138037985347E+04   -0.20790E-06   -0.12353E-08  3776   0.993E-05    0.979E-05
DAV:  10    -0.138037985366E+04   -0.18532E-06   -0.80848E-09  3520   0.919E-05    0.954E-05
DAV:  11    -0.138037985377E+04   -0.11473E-06   -0.54399E-09  3232   0.972E-05    0.623E-05
DAV:  12    -0.138037985386E+04   -0.89247E-07   -0.66438E-09  3424   0.105E-04    0.315E-05
DAV:  13    -0.138037985391E+04   -0.47497E-07   -0.32551E-09  3072   0.769E-05    0.354E-05
DAV:  14    -0.138037985394E+04   -0.33513E-07   -0.20302E-09  3040   0.491E-05    0.198E-05
DAV:  15    -0.138037985396E+04   -0.15760E-07   -0.11080E-09  3056   0.345E-05    0.110E-05
DAV:  16    -0.138037985396E+04   -0.56461E-08   -0.42893E-10  3008   0.219E-05
  16 F= -.13998973E+04 E0= -.13998973E+04  d E =0.625581E-03  mag=    -0.0000
       N       E                     dE             d eps       ncg     rms          rms(c)
DAV:   1    -0.138038011157E+04   -0.25761E-03   -0.77524E-02  4416   0.206E-01    0.104E-01
DAV:   2    -0.138038006952E+04    0.42047E-04   -0.10619E-03  4736   0.230E-02    0.625E-02
DAV:   3    -0.138038005241E+04    0.17105E-04   -0.44930E-04  4992   0.133E-02    0.207E-02
DAV:   4    -0.138038004262E+04    0.97983E-05   -0.58056E-05  4800   0.482E-03    0.116E-02
DAV:   5    -0.138038004213E+04    0.48811E-06   -0.14930E-05  5184   0.248E-03    0.225E-03
DAV:   6    -0.138038004228E+04   -0.15170E-06   -0.98778E-07  4608   0.729E-04    0.991E-04
DAV:   7    -0.138038004254E+04   -0.25859E-06   -0.18479E-07  4768   0.293E-04    0.506E-04
DAV:   8    -0.138038004286E+04   -0.32093E-06   -0.32142E-08  4000   0.156E-04    0.240E-04
DAV:   9    -0.138038004317E+04   -0.30578E-06   -0.17675E-08  3904   0.117E-04    0.140E-04
DAV:  10    -0.138038004350E+04   -0.33033E-06   -0.16955E-08  3856   0.108E-04    0.104E-04
DAV:  11    -0.138038004366E+04   -0.16580E-06   -0.59025E-09  3296   0.893E-05    0.675E-05
DAV:  12    -0.138038004383E+04   -0.17123E-06   -0.94349E-09  3552   0.979E-05    0.492E-05
DAV:  13    -0.138038004390E+04   -0.72323E-07   -0.34438E-09  3072   0.829E-05    0.403E-05
DAV:  14    -0.138038004398E+04   -0.70926E-07   -0.37462E-09  3136   0.749E-05    0.251E-05
DAV:  15    -0.138038004402E+04   -0.44747E-07   -0.23109E-09  3072   0.585E-05    0.259E-05
DAV:  16    -0.138038004404E+04   -0.18888E-07   -0.98650E-10  3072   0.352E-05    0.120E-05
DAV:  17    -0.138038004406E+04   -0.20023E-07   -0.89648E-10  3008   0.362E-05    0.251E-05
DAV:  18    -0.138038004406E+04   -0.55734E-08   -0.30783E-10  3040   0.233E-05
  17 F= -.13998977E+04 E0= -.13998977E+04  d E =-.383370E-03  mag=    -0.0000
       N       E                     dE             d eps       ncg     rms          rms(c)
DAV:   1    -0.138038038889E+04   -0.34483E-03   -0.75118E-02  4352   0.199E-01    0.918E-02
DAV:   2    -0.138038036045E+04    0.28438E-04   -0.61240E-04  4608   0.177E-02    0.533E-02
DAV:   3    -0.138038035278E+04    0.76797E-05   -0.21689E-04  5120   0.973E-03    0.134E-02
DAV:   4    -0.138038034935E+04    0.34272E-05   -0.24151E-05  4640   0.344E-03    0.794E-03
DAV:   5    -0.138038034923E+04    0.11564E-06   -0.88975E-06  4704   0.208E-03    0.157E-03
DAV:   6    -0.138038034944E+04   -0.20451E-06   -0.66411E-07  4704   0.650E-04    0.882E-04
DAV:   7    -0.138038034964E+04   -0.20659E-06   -0.83162E-08  4544   0.238E-04    0.398E-04
DAV:   8    -0.138038034990E+04   -0.25483E-06   -0.25075E-08  3840   0.126E-04    0.201E-04
DAV:   9    -0.138038035010E+04   -0.20482E-06   -0.74503E-09  3360   0.855E-05    0.104E-04
DAV:  10    -0.138038035035E+04   -0.24603E-06   -0.10798E-08  3456   0.898E-05    0.962E-05
DAV:  11    -0.138038035049E+04   -0.14206E-06   -0.53679E-09  3168   0.915E-05    0.627E-05
DAV:  12    -0.138038035062E+04   -0.13306E-06   -0.77580E-09  3264   0.951E-05    0.543E-05
DAV:  13    -0.138038035066E+04   -0.39188E-07   -0.24108E-09  3072   0.679E-05    0.409E-05
DAV:  14    -0.138038035072E+04   -0.56461E-07   -0.35758E-09  3104   0.693E-05    0.487E-05
DAV:  15    -0.138038035073E+04   -0.11656E-07   -0.12727E-09  3072   0.523E-05    0.322E-05
DAV:  16    -0.138038035074E+04   -0.97061E-08   -0.10331E-09  3008   0.425E-05
  18 F= -.13998979E+04 E0= -.13998979E+04  d E =-.190023E-03  mag=    -0.0000
       N       E                     dE             d eps       ncg     rms          rms(c)
DAV:   1    -0.138037963817E+04    0.71256E-03   -0.79279E-02  4384   0.202E-01    0.115E-01
DAV:   2    -0.138037953490E+04    0.10327E-03   -0.11101E-03  4704   0.237E-02    0.646E-02
DAV:   3    -0.138037950488E+04    0.30025E-04   -0.46677E-04  5152   0.145E-02    0.206E-02
DAV:   4    -0.138037949760E+04    0.72830E-05   -0.53583E-05  4832   0.487E-03    0.125E-02
DAV:   5    -0.138037949690E+04    0.69583E-06   -0.12318E-05  5600   0.246E-03    0.254E-03
DAV:   6    -0.138037949692E+04   -0.21857E-07   -0.93651E-07  4320   0.691E-04    0.101E-03
DAV:   7    -0.138037949710E+04   -0.17782E-06   -0.24646E-07  5184   0.366E-04    0.661E-04
DAV:   8    -0.138037949729E+04   -0.18471E-06   -0.34649E-08  3776   0.183E-04    0.259E-04
DAV:   9    -0.138037949748E+04   -0.19626E-06   -0.21375E-08  3968   0.148E-04    0.155E-04
DAV:  10    -0.138037949765E+04   -0.16933E-06   -0.14552E-08  3776   0.180E-04    0.851E-05
DAV:  11    -0.138037949781E+04   -0.16131E-06   -0.19311E-08  4064   0.202E-04    0.677E-05
DAV:  12    -0.138037949791E+04   -0.94471E-07   -0.10042E-08  3520   0.161E-04    0.409E-05
DAV:  13    -0.138037949804E+04   -0.12899E-06   -0.91879E-09  3392   0.109E-04    0.405E-05
DAV:  14    -0.138037949807E+04   -0.36191E-07   -0.22366E-09  3136   0.762E-05    0.246E-05
DAV:  15    -0.138037949813E+04   -0.53406E-07   -0.29701E-09  3040   0.670E-05    0.410E-05
DAV:  16    -0.138037949815E+04   -0.23414E-07   -0.11924E-09  3072   0.479E-05    0.275E-05
DAV:  17    -0.138037949816E+04   -0.11685E-07   -0.61691E-10  3136   0.329E-05    0.143E-05
DAV:  18    -0.138037949817E+04   -0.10492E-07   -0.26772E-10  3072   0.238E-05    0.146E-05
DAV:  19    -0.138037949818E+04   -0.10943E-07   -0.10156E-10  3072   0.162E-05    0.113E-05
DAV:  20    -0.138037949818E+04   -0.48021E-09    0.86404E-11  3040   0.134E-05
  19 F= -.13998970E+04 E0= -.13998970E+04  d E =0.893041E-03  mag=    -0.0000
       N       E                     dE             d eps       ncg     rms          rms(c)
DAV:   1    -0.138037975883E+04   -0.26065E-03   -0.81848E-02  4864   0.214E-01    0.126E-01
DAV:   2    -0.138037963330E+04    0.12553E-03   -0.15558E-03  5248   0.313E-02    0.736E-02
DAV:   3    -0.138037959376E+04    0.39544E-04   -0.85923E-04  5248   0.203E-02    0.272E-02
DAV:   4    -0.138037957797E+04    0.15788E-04   -0.10066E-04  5472   0.670E-03    0.178E-02
DAV:   5    -0.138037957495E+04    0.30193E-05   -0.29697E-05  5056   0.377E-03    0.415E-03
DAV:   6    -0.138037957471E+04    0.23686E-06   -0.35155E-06  4864   0.144E-03    0.121E-03
DAV:   7    -0.138037957478E+04   -0.67885E-07   -0.48369E-07  5280   0.541E-04    0.998E-04
DAV:   8    -0.138037957489E+04   -0.10783E-06   -0.56379E-08  4112   0.283E-04    0.399E-04
DAV:   9    -0.138037957503E+04   -0.13591E-06   -0.41282E-08  3968   0.225E-04    0.223E-04
DAV:  10    -0.138037957519E+04   -0.15982E-06   -0.10549E-08  3424   0.143E-04    0.139E-04
DAV:  11    -0.138037957536E+04   -0.17650E-06   -0.10261E-08  3520   0.145E-04    0.865E-05
DAV:  12    -0.138037957550E+04   -0.14160E-06   -0.10101E-08  3680   0.123E-04    0.593E-05
DAV:  13    -0.138037957560E+04   -0.94209E-07   -0.46453E-09  3168   0.836E-05    0.541E-05
DAV:  14    -0.138037957566E+04   -0.64771E-07   -0.38288E-09  3072   0.720E-05    0.265E-05
DAV:  15    -0.138037957569E+04   -0.30763E-07   -0.33746E-09  3072   0.712E-05    0.244E-05
DAV:  16    -0.138037957571E+04   -0.15280E-07   -0.18905E-09  3136   0.510E-05    0.206E-05
DAV:  17    -0.138037957572E+04   -0.13024E-07   -0.12110E-09  3072   0.352E-05    0.196E-05
DAV:  18    -0.138037957572E+04   -0.10041E-08   -0.39319E-10  3136   0.241E-05
  20 F= -.13998971E+04 E0= -.13998971E+04  d E =-.109757E-03  mag=     0.0000
       N       E                     dE             d eps       ncg     rms          rms(c)
DAV:   1    -0.138038041748E+04   -0.84176E-03   -0.78381E-02  4928   0.202E-01    0.111E-01
DAV:   2    -0.138038032092E+04    0.96560E-04   -0.93327E-04  5184   0.232E-02    0.630E-02
DAV:   3    -0.138038029674E+04    0.24185E-04   -0.50019E-04  5536   0.149E-02    0.215E-02
DAV:   4    -0.138038028762E+04    0.91157E-05   -0.48494E-05  5280   0.480E-03    0.138E-02
DAV:   5    -0.138038028639E+04    0.12274E-05   -0.19291E-05  5120   0.292E-03    0.257E-03
DAV:   6    -0.138038028640E+04   -0.52387E-08   -0.14757E-06  4960   0.979E-04    0.113E-03
DAV:   7    -0.138038028643E+04   -0.27634E-07   -0.21674E-07  4896   0.330E-04    0.911E-04
DAV:   8    -0.138038028648E+04   -0.53027E-07   -0.47942E-08  4352   0.258E-04    0.290E-04
DAV:   9    -0.138038028653E+04   -0.51514E-07   -0.23844E-08  3936   0.177E-04    0.200E-04
DAV:  10    -0.138038028659E+04   -0.55559E-07   -0.53265E-09  3136   0.973E-05    0.104E-04
DAV:  11    -0.138038028664E+04   -0.57786E-07   -0.33651E-09  3072   0.911E-05    0.626E-05
DAV:  12    -0.138038028671E+04   -0.60725E-07   -0.55320E-09  3200   0.109E-04    0.512E-05
DAV:  13    -0.138038028674E+04   -0.38010E-07   -0.38662E-09  3072   0.811E-05    0.465E-05
DAV:  14    -0.138038028677E+04   -0.26441E-07   -0.33031E-09  3040   0.724E-05    0.341E-05
DAV:  15    -0.138038028678E+04   -0.12005E-07   -0.23506E-09  3008   0.630E-05    0.248E-05
DAV:  16    -0.138038028679E+04   -0.72323E-08   -0.11245E-09  2928   0.408E-05
  21 F= -.13998979E+04 E0= -.13998979E+04  d E =-.737836E-03  mag=    -0.0000
       N       E                     dE             d eps       ncg     rms          rms(c)
DAV:   1    -0.138038012004E+04    0.16674E-03   -0.74471E-02  5056   0.197E-01    0.902E-02
DAV:   2    -0.138038010416E+04    0.15886E-04   -0.64523E-04  5024   0.174E-02    0.539E-02
DAV:   3    -0.138038009348E+04    0.10676E-04   -0.23358E-04  5312   0.103E-02    0.143E-02
DAV:   4    -0.138038008904E+04    0.44435E-05   -0.27350E-05  4736   0.348E-03    0.877E-03
DAV:   5    -0.138038008820E+04    0.84106E-06   -0.11944E-05  4704   0.211E-03    0.179E-03
DAV:   6    -0.138038008836E+04   -0.16535E-06   -0.69251E-07  4672   0.619E-04    0.902E-04
DAV:   7    -0.138038008857E+04   -0.20988E-06   -0.90320E-08  4272   0.242E-04    0.399E-04
DAV:   8    -0.138038008890E+04   -0.32379E-06   -0.37045E-08  3872   0.162E-04    0.239E-04
DAV:   9    -0.138038008928E+04   -0.38664E-06   -0.23568E-08  3968   0.144E-04    0.115E-04
DAV:  10    -0.138038008957E+04   -0.28843E-06   -0.14424E-08  3712   0.118E-04    0.947E-05
DAV:  11    -0.138038008979E+04   -0.21703E-06   -0.10472E-08  3680   0.113E-04    0.690E-05
DAV:  12    -0.138038008994E+04   -0.14868E-06   -0.88645E-09  3520   0.122E-04    0.327E-05
DAV:  13    -0.138038009004E+04   -0.10279E-06   -0.73645E-09  3424   0.111E-04    0.345E-05
DAV:  14    -0.138038009008E+04   -0.43874E-07   -0.29260E-09  3072   0.708E-05    0.284E-05
DAV:  15    -0.138038009013E+04   -0.48574E-07   -0.19964E-09  3040   0.439E-05    0.114E-05
DAV:  16    -0.138038009015E+04   -0.14799E-07   -0.72498E-10  3072   0.300E-05    0.133E-05
DAV:  17    -0.138038009015E+04   -0.52096E-08   -0.21743E-10  2944   0.180E-05
  22 F= -.13998974E+04 E0= -.13998974E+04  d E =0.479311E-03  mag=    -0.0000
       N       E                     dE             d eps       ncg     rms          rms(c)
DAV:   1    -0.138037981641E+04    0.27374E-03   -0.77956E-02  5120   0.216E-01    0.111E-01
DAV:   2    -0.138037975100E+04    0.65412E-04   -0.12140E-03  5280   0.260E-02    0.668E-02
DAV:   3    -0.138037971775E+04    0.33243E-04   -0.59268E-04  5344   0.168E-02    0.236E-02
DAV:   4    -0.138037970678E+04    0.10974E-04   -0.71070E-05  5088   0.574E-03    0.145E-02
DAV:   5    -0.138037970526E+04    0.15181E-05   -0.22647E-05  4992   0.316E-03    0.270E-03
DAV:   6    -0.138037970527E+04   -0.11059E-07   -0.13656E-06  4928   0.962E-04    0.120E-03
DAV:   7    -0.138037970540E+04   -0.12874E-06   -0.23508E-07  4640   0.364E-04    0.659E-04
DAV:   8    -0.138037970556E+04   -0.15552E-06   -0.36685E-08  4032   0.222E-04    0.334E-04
DAV:   9    -0.138037970573E+04   -0.17376E-06   -0.18076E-08  3872   0.154E-04    0.166E-04
DAV:  10    -0.138037970592E+04   -0.19481E-06   -0.14367E-08  3888   0.138E-04    0.132E-04
DAV:  11    -0.138037970604E+04   -0.11541E-06   -0.45959E-09  3232   0.981E-05    0.906E-05
DAV:  12    -0.138037970619E+04   -0.15185E-06   -0.12018E-08  3712   0.118E-04    0.783E-05
DAV:  13    -0.138037970625E+04   -0.57509E-07   -0.38525E-09  3072   0.986E-05    0.535E-05
DAV:  14    -0.138037970631E+04   -0.59168E-07   -0.57985E-09  3136   0.106E-04    0.566E-05
DAV:  15    -0.138037970633E+04   -0.23050E-07   -0.32340E-09  3072   0.856E-05    0.513E-05
DAV:  16    -0.138037970635E+04   -0.14814E-07   -0.12970E-09  3136   0.508E-05    0.161E-05
DAV:  17    -0.138037970636E+04   -0.14770E-07   -0.11318E-09  3072   0.424E-05    0.344E-05
DAV:  18    -0.138037970637E+04   -0.77416E-08   -0.46636E-10  3040   0.259E-05
  23 F= -.13998973E+04 E0= -.13998973E+04  d E =0.837032E-04  mag=     0.0000
       N       E                     dE             d eps       ncg     rms          rms(c)
DAV:   1    -0.138038045540E+04   -0.74903E-03   -0.77760E-02  5120   0.211E-01    0.110E-01
DAV:   2    -0.138038036125E+04    0.94150E-04   -0.87662E-04  5280   0.233E-02    0.615E-02
DAV:   3    -0.138038033784E+04    0.23404E-04   -0.39689E-04  5376   0.134E-02    0.196E-02
DAV:   4    -0.138038033140E+04    0.64428E-05   -0.40975E-05  4928   0.438E-03    0.120E-02
DAV:   5    -0.138038033079E+04    0.60642E-06   -0.11701E-05  5232   0.238E-03    0.256E-03
DAV:   6    -0.138038033078E+04    0.10987E-07   -0.10323E-06  4800   0.840E-04    0.100E-03
DAV:   7    -0.138038033078E+04    0.40600E-08   -0.17211E-07  5152   0.314E-04    0.579E-04
DAV:   8    -0.138038033081E+04   -0.32756E-07   -0.22102E-08  3872   0.163E-04    0.240E-04
DAV:   9    -0.138038033084E+04   -0.32596E-07   -0.86874E-09  3456   0.118E-04    0.111E-04
DAV:  10    -0.138038033089E+04   -0.44893E-07   -0.48008E-09  3072   0.969E-05    0.789E-05
DAV:  11    -0.138038033092E+04   -0.36147E-07   -0.32690E-09  3072   0.872E-05    0.582E-05
DAV:  12    -0.138038033097E+04   -0.47978E-07   -0.52601E-09  3136   0.106E-04    0.590E-05
DAV:  13    -0.138038033099E+04   -0.22133E-07   -0.35688E-09  3072   0.927E-05    0.437E-05
DAV:  14    -0.138038033101E+04   -0.19543E-07   -0.31289E-09  3040   0.799E-05    0.334E-05
DAV:  15    -0.138038033103E+04   -0.14508E-07   -0.16563E-09  3072   0.530E-05    0.342E-05
DAV:  16    -0.138038033104E+04   -0.92114E-08   -0.79798E-10  3040   0.333E-05
  24 F= -.13998979E+04 E0= -.13998979E+04  d E =-.576573E-03  mag=    -0.0000
       N       E                     dE             d eps       ncg     rms          rms(c)
DAV:   1    -0.138038002746E+04    0.30356E-03   -0.74585E-02  5056   0.207E-01    0.902E-02
DAV:   2    -0.138038001238E+04    0.15083E-04   -0.56676E-04  5376   0.180E-02    0.534E-02
DAV:   3    -0.138038000579E+04    0.65914E-05   -0.20879E-04  5504   0.101E-02    0.132E-02
DAV:   4    -0.138038000226E+04    0.35338E-05   -0.22902E-05  5440   0.342E-03    0.820E-03
DAV:   5    -0.138038000161E+04    0.64970E-06   -0.10509E-05  4992   0.215E-03    0.165E-03
DAV:   6    -0.138038000166E+04   -0.49797E-07   -0.81022E-07  4704   0.710E-04    0.845E-04
DAV:   7    -0.138038000167E+04   -0.11016E-07   -0.74921E-08  4464   0.264E-04    0.385E-04
DAV:   8    -0.138038000172E+04   -0.53755E-07   -0.26838E-08  3824   0.157E-04    0.205E-04
DAV:   9    -0.138038000177E+04   -0.54089E-07   -0.63161E-09  3232   0.108E-04    0.873E-05
DAV:  10    -0.138038000183E+04   -0.58426E-07   -0.65000E-09  3264   0.926E-05    0.868E-05
DAV:  11    -0.138038000187E+04   -0.36423E-07   -0.34465E-09  3072   0.845E-05    0.613E-05
DAV:  12    -0.138038000192E+04   -0.53420E-07   -0.64434E-09  3232   0.105E-04    0.486E-05
DAV:  13    -0.138038000193E+04   -0.98953E-08   -0.22099E-09  3136   0.650E-05
  25 F= -.13998973E+04 E0= -.13998973E+04  d E =0.573345E-03  mag=    -0.0000
       N       E                     dE             d eps       ncg     rms          rms(c)
DAV:   1    -0.138037964922E+04    0.35270E-03   -0.78368E-02  5120   0.209E-01    0.110E-01
DAV:   2    -0.138037959511E+04    0.54110E-04   -0.11448E-03  5312   0.254E-02    0.672E-02
DAV:   3    -0.138037956809E+04    0.27025E-04   -0.68540E-04  5472   0.182E-02    0.248E-02
DAV:   4    -0.138037955561E+04    0.12479E-04   -0.78988E-05  5216   0.598E-03    0.166E-02
DAV:   5    -0.138037955225E+04    0.33530E-05   -0.28802E-05  4896   0.354E-03    0.399E-03
DAV:   6    -0.138037955217E+04    0.80559E-07   -0.29832E-06  4976   0.125E-03    0.116E-03
DAV:   7    -0.138037955225E+04   -0.74666E-07   -0.46829E-07  5120   0.503E-04    0.884E-04
DAV:   8    -0.138037955234E+04   -0.88636E-07   -0.75612E-08  4144   0.265E-04    0.351E-04
DAV:   9    -0.138037955240E+04   -0.65615E-07   -0.28983E-08  4016   0.186E-04    0.174E-04
DAV:  10    -0.138037955247E+04   -0.65935E-07   -0.66153E-09  3264   0.110E-04    0.119E-04
DAV:  11    -0.138037955253E+04   -0.58630E-07   -0.65921E-09  3328   0.114E-04    0.858E-05
DAV:  12    -0.138037955258E+04   -0.48487E-07   -0.92807E-09  3536   0.147E-04    0.411E-05
DAV:  13    -0.138037955260E+04   -0.25611E-07   -0.67069E-09  3232   0.131E-04    0.345E-05
DAV:  14    -0.138037955262E+04   -0.16036E-07   -0.23987E-09  3072   0.682E-05    0.245E-05
DAV:  15    -0.138037955264E+04   -0.22221E-07   -0.19171E-09  3008   0.502E-05    0.155E-05
DAV:  16    -0.138037955265E+04   -0.78435E-08   -0.90849E-10  3072   0.337E-05
  26 F= -.13998971E+04 E0= -.13998971E+04  d E =0.177167E-03  mag=     0.0000
       N       E                     dE             d eps       ncg     rms          rms(c)
DAV:   1    -0.138037962674E+04   -0.74096E-04   -0.72644E-02  4544   0.162E-01    0.787E-02
DAV:   2    -0.138037965676E+04   -0.30024E-04   -0.51776E-04  4800   0.127E-02    0.476E-02
DAV:   3    -0.138037965528E+04    0.14806E-05   -0.69578E-05  5088   0.565E-03    0.510E-03
DAV:   4    -0.138037965555E+04   -0.26682E-06   -0.80957E-06  4544   0.166E-03    0.315E-03
DAV:   5    -0.138037965546E+04    0.83150E-07   -0.20253E-06  4672   0.104E-03    0.114E-03
DAV:   6    -0.138037965558E+04   -0.11189E-06   -0.28495E-07  4480   0.387E-04    0.641E-04
DAV:   7    -0.138037965567E+04   -0.99331E-07   -0.62769E-08  4096   0.220E-04    0.249E-04
DAV:   8    -0.138037965577E+04   -0.93307E-07   -0.14584E-08  3680   0.133E-04    0.182E-04
DAV:   9    -0.138037965592E+04   -0.15403E-06   -0.19799E-08  4032   0.189E-04    0.935E-05
DAV:  10    -0.138037965601E+04   -0.86831E-07   -0.14504E-08  3872   0.183E-04    0.693E-05
DAV:  11    -0.138037965606E+04   -0.48647E-07   -0.65866E-09  3216   0.133E-04    0.519E-05
DAV:  12    -0.138037965611E+04   -0.47759E-07   -0.44950E-09  3056   0.101E-04    0.338E-05
DAV:  13    -0.138037965616E+04   -0.51819E-07   -0.44199E-09  3072   0.823E-05    0.220E-05
DAV:  14    -0.138037965619E+04   -0.28900E-07   -0.23703E-09  3072   0.552E-05    0.173E-05
DAV:  15    -0.138037965620E+04   -0.17171E-07   -0.13828E-09  3072   0.378E-05    0.118E-05
DAV:  16    -0.138037965621E+04   -0.88476E-08   -0.68992E-10  3040   0.239E-05
  27 F= -.13998972E+04 E0= -.13998972E+04  d E =-.846141E-04  mag=    -0.0000
       N       E                     dE             d eps       ncg     rms          rms(c)
DAV:   1    -0.138038063586E+04   -0.97965E-03   -0.74745E-02  4544   0.165E-01    0.926E-02
DAV:   2    -0.138038061715E+04    0.18707E-04   -0.64367E-04  4800   0.164E-02    0.545E-02
DAV:   3    -0.138038060915E+04    0.79976E-05   -0.26482E-04  5152   0.105E-02    0.153E-02
DAV:   4    -0.138038060474E+04    0.44101E-05   -0.25606E-05  4768   0.344E-03    0.101E-02
DAV:   5    -0.138038060376E+04    0.97671E-06   -0.13923E-05  4736   0.244E-03    0.177E-03
DAV:   6    -0.138038060391E+04   -0.14725E-06   -0.89849E-07  4704   0.748E-04    0.101E-03
DAV:   7    -0.138038060408E+04   -0.17167E-06   -0.15859E-07  4384   0.288E-04    0.678E-04
DAV:   8    -0.138038060427E+04   -0.18666E-06   -0.50237E-08  3968   0.201E-04    0.215E-04
DAV:   9    -0.138038060440E+04   -0.13332E-06   -0.17760E-08  3776   0.139E-04    0.155E-04
DAV:  10    -0.138038060455E+04   -0.14974E-06   -0.66885E-09  3392   0.107E-04    0.824E-05
DAV:  11    -0.138038060467E+04   -0.11176E-06   -0.68183E-09  3472   0.979E-05    0.571E-05
DAV:  12    -0.138038060473E+04   -0.63941E-07   -0.38607E-09  3072   0.857E-05    0.364E-05
DAV:  13    -0.138038060479E+04   -0.64625E-07   -0.49021E-09  3248   0.794E-05    0.282E-05
DAV:  14    -0.138038060482E+04   -0.28740E-07   -0.19898E-09  3072   0.551E-05    0.215E-05
DAV:  15    -0.138038060485E+04   -0.25815E-07   -0.15777E-09  3072   0.428E-05    0.194E-05
DAV:  16    -0.138038060486E+04   -0.10565E-07   -0.94584E-10  3072   0.357E-05    0.133E-05
DAV:  17    -0.138038060486E+04   -0.28958E-08   -0.27646E-10  2944   0.203E-05
  28 F= -.13998979E+04 E0= -.13998979E+04  d E =-.692430E-03  mag=    -0.0000
       N       E                     dE             d eps       ncg     rms          rms(c)
DAV:   1    -0.138038013245E+04    0.47240E-03   -0.73270E-02  4544   0.196E-01    0.823E-02
DAV:   2    -0.138038011871E+04    0.13742E-04   -0.57094E-04  4992   0.166E-02    0.486E-02
DAV:   3    -0.138038011313E+04    0.55787E-05   -0.26142E-04  5248   0.106E-02    0.143E-02
DAV:   4    -0.138038011076E+04    0.23720E-05   -0.21834E-05  4736   0.321E-03    0.102E-02
DAV:   5    -0.138038011046E+04    0.30280E-06   -0.12930E-05  4512   0.233E-03    0.207E-03
DAV:   6    -0.138038011113E+04   -0.67089E-06   -0.85359E-07  4736   0.714E-04    0.115E-03
DAV:   7    -0.138038011219E+04   -0.10624E-05   -0.28249E-07  4384   0.366E-04    0.674E-04
DAV:   8    -0.138038011316E+04   -0.96338E-06   -0.79289E-08  4160   0.210E-04    0.314E-04
DAV:   9    -0.138038011408E+04   -0.92629E-06   -0.46900E-08  4128   0.144E-04    0.189E-04
DAV:  10    -0.138038011511E+04   -0.10235E-05   -0.49904E-08  4096   0.144E-04    0.135E-04
DAV:  11    -0.138038011557E+04   -0.46472E-06   -0.17423E-08  3840   0.990E-05    0.892E-05
DAV:  12    -0.138038011590E+04   -0.32473E-06   -0.96988E-09  3648   0.977E-05    0.603E-05
DAV:  13    -0.138038011614E+04   -0.24794E-06   -0.10124E-08  3776   0.985E-05    0.571E-05
DAV:  14    -0.138038011624E+04   -0.94544E-07   -0.31416E-09  3072   0.854E-05    0.347E-05
DAV:  15    -0.138038011632E+04   -0.83266E-07   -0.36251E-09  3072   0.872E-05    0.232E-05
DAV:  16    -0.138038011636E+04   -0.34677E-07   -0.15544E-09  3072   0.541E-05    0.238E-05
DAV:  17    -0.138038011638E+04   -0.28871E-07   -0.65688E-10  3008   0.354E-05    0.101E-05
DAV:  18    -0.138038011640E+04   -0.18481E-07   -0.41066E-10  3040   0.266E-05    0.189E-05
DAV:  19    -0.138038011641E+04   -0.25611E-08   -0.28155E-11  2880   0.147E-05
  29 F= -.13998977E+04 E0= -.13998977E+04  d E =0.161691E-03  mag=     0.0000
       N       E                     dE             d eps       ncg     rms          rms(c)
DAV:   1    -0.138038034087E+04   -0.22447E-03   -0.74225E-02  4352   0.195E-01    0.884E-02
DAV:   2    -0.138038033214E+04    0.87328E-05   -0.61371E-04  4800   0.167E-02    0.521E-02
DAV:   3    -0.138038032626E+04    0.58798E-05   -0.21182E-04  5440   0.965E-03    0.132E-02
DAV:   4    -0.138038032279E+04    0.34731E-05   -0.20681E-05  4928   0.326E-03    0.850E-03
DAV:   5    -0.138038032235E+04    0.43874E-06   -0.11293E-05  4800   0.224E-03    0.161E-03
DAV:   6    -0.138038032266E+04   -0.31618E-06   -0.73496E-07  4672   0.686E-04    0.972E-04
DAV:   7    -0.138038032300E+04   -0.33651E-06   -0.10861E-07  4320   0.246E-04    0.537E-04
DAV:   8    -0.138038032341E+04   -0.41156E-06   -0.36350E-08  3808   0.135E-04    0.215E-04
DAV:   9    -0.138038032371E+04   -0.30115E-06   -0.15048E-08  3696   0.107E-04    0.137E-04
DAV:  10    -0.138038032405E+04   -0.33970E-06   -0.12305E-08  3680   0.889E-05    0.111E-04
DAV:  11    -0.138038032427E+04   -0.21627E-06   -0.80158E-09  3488   0.998E-05    0.557E-05
DAV:  12    -0.138038032441E+04   -0.14206E-06   -0.71835E-09  3328   0.110E-04    0.530E-05
DAV:  13    -0.138038032449E+04   -0.75801E-07   -0.42552E-09  3024   0.895E-05    0.428E-05
DAV:  14    -0.138038032455E+04   -0.65236E-07   -0.36299E-09  3040   0.658E-05    0.214E-05
DAV:  15    -0.138038032458E+04   -0.23778E-07   -0.17768E-09  3040   0.511E-05    0.186E-05
DAV:  16    -0.138038032458E+04   -0.94587E-08   -0.78539E-10  3040   0.332E-05
  30 F= -.13998979E+04 E0= -.13998979E+04  d E =-.179170E-03  mag=     0.0000
       N       E                     dE             d eps       ncg     rms          rms(c)
DAV:   1    -0.138037948311E+04    0.84147E-03   -0.79810E-02  4480   0.201E-01    0.118E-01
DAV:   2    -0.138037937679E+04    0.10631E-03   -0.12063E-03  4608   0.255E-02    0.676E-02
DAV:   3    -0.138037934731E+04    0.29481E-04   -0.67233E-04  4864   0.168E-02    0.247E-02
DAV:   4    -0.138037933497E+04    0.12337E-04   -0.61915E-05  4736   0.539E-03    0.165E-02
DAV:   5    -0.138037933243E+04    0.25441E-05   -0.25142E-05  4992   0.327E-03    0.364E-03
DAV:   6    -0.138037933233E+04    0.10234E-06   -0.33718E-06  4960   0.127E-03    0.131E-03
DAV:   7    -0.138037933249E+04   -0.16257E-06   -0.33443E-07  4256   0.422E-04    0.125E-03
DAV:   8    -0.138037933266E+04   -0.17043E-06   -0.62528E-08  3936   0.211E-04    0.445E-04
DAV:   9    -0.138037933284E+04   -0.18383E-06   -0.64933E-08  4032   0.179E-04    0.322E-04
DAV:  10    -0.138037933296E+04   -0.11495E-06   -0.99021E-09  3648   0.110E-04    0.138E-04
DAV:  11    -0.138037933310E+04   -0.14456E-06   -0.10217E-08  3648   0.104E-04    0.804E-05
DAV:  12    -0.138037933320E+04   -0.10006E-06   -0.42952E-09  3200   0.799E-05    0.581E-05
DAV:  13    -0.138037933331E+04   -0.10258E-06   -0.57153E-09  3328   0.718E-05    0.320E-05
DAV:  14    -0.138037933337E+04   -0.63155E-07   -0.33370E-09  3072   0.646E-05    0.238E-05
DAV:  15    -0.138037933342E+04   -0.49913E-07   -0.36280E-09  3104   0.668E-05    0.150E-05
DAV:  16    -0.138037933344E+04   -0.17812E-07   -0.19660E-09  3072   0.524E-05    0.112E-05
DAV:  17    -0.138037933345E+04   -0.16036E-07   -0.80012E-10  3072   0.248E-05    0.683E-06
DAV:  18    -0.138037933346E+04   -0.10303E-07   -0.32654E-10  3072   0.198E-05    0.631E-06
DAV:  19    -0.138037933347E+04   -0.17026E-08   -0.46496E-11  2992   0.131E-05
  31 F= -.13998969E+04 E0= -.13998969E+04  d E =0.102826E-02  mag=    -0.0000
       N       E                     dE             d eps       ncg     rms          rms(c)
DAV:   1    -0.138038006451E+04   -0.73104E-03   -0.81094E-02  4384   0.219E-01    0.121E-01
DAV:   2    -0.138037998836E+04    0.76146E-04   -0.15665E-03  4992   0.308E-02    0.721E-02
DAV:   3    -0.138037994985E+04    0.38513E-04   -0.79271E-04  5280   0.190E-02    0.265E-02
DAV:   4    -0.138037993678E+04    0.13061E-04   -0.79758E-05  5056   0.610E-03    0.171E-02
DAV:   5    -0.138037993412E+04    0.26654E-05   -0.30913E-05  4960   0.368E-03    0.321E-03
DAV:   6    -0.138037993427E+04   -0.15207E-06   -0.22746E-06  5280   0.113E-03    0.129E-03
DAV:   7    -0.138037993444E+04   -0.17036E-06   -0.31361E-07  4544   0.453E-04    0.878E-04
DAV:   8    -0.138037993468E+04   -0.23592E-06   -0.50257E-08  3936   0.222E-04    0.358E-04
DAV:   9    -0.138037993491E+04   -0.23363E-06   -0.28058E-08  3808   0.148E-04    0.188E-04
DAV:  10    -0.138037993517E+04   -0.25636E-06   -0.99801E-09  3552   0.111E-04    0.129E-04
DAV:  11    -0.138037993542E+04   -0.24808E-06   -0.14802E-08  3920   0.118E-04    0.779E-05
DAV:  12    -0.138037993557E+04   -0.15082E-06   -0.78852E-09  3520   0.109E-04    0.547E-05
DAV:  13    -0.138037993569E+04   -0.12206E-06   -0.70514E-09  3296   0.108E-04    0.452E-05
DAV:  14    -0.138037993575E+04   -0.63286E-07   -0.60934E-09  3200   0.116E-04    0.256E-05
DAV:  15    -0.138037993578E+04   -0.32844E-07   -0.47637E-09  3104   0.103E-04    0.191E-05
DAV:  16    -0.138037993580E+04   -0.12660E-07   -0.16767E-09  3072   0.531E-05    0.159E-05
DAV:  17    -0.138037993581E+04   -0.86438E-08   -0.77473E-10  3072   0.313E-05
  32 F= -.13998974E+04 E0= -.13998974E+04  d E =-.542640E-03  mag=     0.0000
       N       E                     dE             d eps       ncg     rms          rms(c)
DAV:   1    -0.138038041898E+04   -0.48318E-03   -0.78167E-02  4352   0.210E-01    0.109E-01
DAV:   2    -0.138038034185E+04    0.77134E-04   -0.92744E-04  4928   0.231E-02    0.623E-02
DAV:   3    -0.138038031778E+04    0.24068E-04   -0.42143E-04  5088   0.138E-02    0.192E-02
DAV:   4    -0.138038031067E+04    0.71144E-05   -0.44220E-05  4832   0.466E-03    0.121E-02
DAV:   5    -0.138038031003E+04    0.63259E-06   -0.13571E-05  5536   0.260E-03    0.260E-03
DAV:   6    -0.138038031017E+04   -0.13290E-06   -0.11479E-06  4832   0.824E-04    0.103E-03
DAV:   7    -0.138038031045E+04   -0.28602E-06   -0.21403E-07  4864   0.343E-04    0.691E-04
DAV:   8    -0.138038031076E+04   -0.30473E-06   -0.33838E-08  3872   0.160E-04    0.274E-04
DAV:   9    -0.138038031103E+04   -0.27433E-06   -0.20468E-08  3808   0.115E-04    0.163E-04
DAV:  10    -0.138038031125E+04   -0.22273E-06   -0.69519E-09  3328   0.827E-05    0.972E-05
DAV:  11    -0.138038031149E+04   -0.23545E-06   -0.95043E-09  3552   0.912E-05    0.583E-05
DAV:  12    -0.138038031166E+04   -0.16719E-06   -0.72423E-09  3360   0.904E-05    0.476E-05
DAV:  13    -0.138038031177E+04   -0.11027E-06   -0.44600E-09  3168   0.788E-05    0.380E-05
DAV:  14    -0.138038031184E+04   -0.77896E-07   -0.36823E-09  3168   0.677E-05    0.217E-05
DAV:  15    -0.138038031188E+04   -0.40120E-07   -0.19680E-09  3072   0.516E-05    0.216E-05
DAV:  16    -0.138038031191E+04   -0.29322E-07   -0.11463E-09  3008   0.381E-05    0.162E-05
DAV:  17    -0.138038031193E+04   -0.15090E-07   -0.53733E-10  3040   0.281E-05    0.123E-05
DAV:  18    -0.138038031194E+04   -0.66648E-08   -0.15254E-10  3008   0.181E-05
  33 F= -.13998979E+04 E0= -.13998979E+04  d E =-.436466E-03  mag=     0.0000
       N       E                     dE             d eps       ncg     rms          rms(c)
DAV:   1    -0.138037973794E+04    0.57398E-03   -0.74456E-02  4352   0.206E-01    0.896E-02
DAV:   2    -0.138037971842E+04    0.19524E-04   -0.60144E-04  4672   0.178E-02    0.527E-02
DAV:   3    -0.138037971020E+04    0.82172E-05   -0.20490E-04  5504   0.965E-03    0.128E-02
DAV:   4    -0.138037970697E+04    0.32317E-05   -0.25727E-05  4928   0.346E-03    0.755E-03
DAV:   5    -0.138037970694E+04    0.28536E-07   -0.86740E-06  4896   0.196E-03    0.158E-03
DAV:   6    -0.138037970705E+04   -0.10729E-06   -0.63964E-07  4576   0.556E-04    0.838E-04
DAV:   7    -0.138037970723E+04   -0.17519E-06   -0.74920E-08  4352   0.234E-04    0.315E-04
DAV:   8    -0.138037970740E+04   -0.17515E-06   -0.29492E-08  3968   0.134E-04    0.210E-04
DAV:   9    -0.138037970758E+04   -0.18053E-06   -0.10374E-08  3520   0.885E-05    0.859E-05
DAV:  10    -0.138037970773E+04   -0.14748E-06   -0.75296E-09  3344   0.753E-05    0.785E-05
DAV:  11    -0.138037970783E+04   -0.10582E-06   -0.51183E-09  3168   0.736E-05    0.549E-05
DAV:  12    -0.138037970792E+04   -0.86584E-07   -0.61283E-09  3200   0.801E-05    0.280E-05
DAV:  13    -0.138037970796E+04   -0.41720E-07   -0.35685E-09  3072   0.665E-05    0.297E-05
DAV:  14    -0.138037970799E+04   -0.29046E-07   -0.22381E-09  3072   0.467E-05    0.213E-05
DAV:  15    -0.138037970801E+04   -0.15352E-07   -0.12075E-09  3072   0.311E-05    0.110E-05
DAV:  16    -0.138037970802E+04   -0.79308E-08   -0.58836E-10  3072   0.228E-05
  34 F= -.13998972E+04 E0= -.13998972E+04  d E =0.661413E-03  mag=     0.0000
       N       E                     dE             d eps       ncg     rms          rms(c)
DAV:   1    -0.138038012868E+04   -0.42067E-03   -0.78230E-02  4960   0.210E-01    0.107E-01
DAV:   2    -0.138038010166E+04    0.27019E-04   -0.12525E-03  5472   0.269E-02    0.647E-02
DAV:   3    -0.138038007379E+04    0.27871E-04   -0.55034E-04  5600   0.163E-02    0.221E-02
DAV:   4    -0.138038006529E+04    0.85024E-05   -0.59754E-05  5248   0.529E-03    0.141E-02
DAV:   5    -0.138038006321E+04    0.20762E-05   -0.22771E-05  5152   0.318E-03    0.270E-03
DAV:   6    -0.138038006332E+04   -0.10950E-06   -0.17309E-06  5184   0.973E-04    0.118E-03
DAV:   7    -0.138038006331E+04    0.83237E-08   -0.24369E-07  4576   0.370E-04    0.695E-04
DAV:   8    -0.138038006338E+04   -0.66473E-07   -0.48417E-08  4000   0.228E-04    0.322E-04
DAV:   9    -0.138038006346E+04   -0.81738E-07   -0.17269E-08  3904   0.141E-04    0.163E-04
DAV:  10    -0.138038006360E+04   -0.14166E-06   -0.94767E-09  3424   0.115E-04    0.106E-04
DAV:  11    -0.138038006371E+04   -0.10572E-06   -0.65819E-09  3328   0.947E-05    0.809E-05
DAV:  12    -0.138038006383E+04   -0.11652E-06   -0.79998E-09  3424   0.969E-05    0.591E-05
DAV:  13    -0.138038006389E+04   -0.64625E-07   -0.34241E-09  3072   0.788E-05    0.374E-05
DAV:  14    -0.138038006396E+04   -0.65746E-07   -0.42901E-09  3104   0.795E-05    0.407E-05
DAV:  15    -0.138038006399E+04   -0.29555E-07   -0.27895E-09  3072   0.776E-05    0.273E-05
DAV:  16    -0.138038006401E+04   -0.19631E-07   -0.17218E-09  3072   0.534E-05    0.197E-05
DAV:  17    -0.138038006402E+04   -0.18466E-07   -0.91838E-10  3072   0.311E-05    0.270E-05
DAV:  18    -0.138038006403E+04   -0.43074E-08   -0.35252E-10  3072   0.216E-05
  35 F= -.13998977E+04 E0= -.13998977E+04  d E =-.516151E-03  mag=    -0.0000
       N       E                     dE             d eps       ncg     rms          rms(c)
DAV:   1    -0.138038036696E+04   -0.30294E-03   -0.75338E-02  4928   0.183E-01    0.926E-02
DAV:   2    -0.138038033888E+04    0.28083E-04   -0.64093E-04  5312   0.177E-02    0.536E-02
DAV:   3    -0.138038032815E+04    0.10728E-04   -0.21609E-04  5472   0.995E-03    0.139E-02
DAV:   4    -0.138038032491E+04    0.32383E-05   -0.22832E-05  5344   0.331E-03    0.812E-03
DAV:   5    -0.138038032447E+04    0.44113E-06   -0.90913E-06  5120   0.210E-03    0.166E-03
DAV:   6    -0.138038032447E+04   -0.20082E-08   -0.68183E-07  5120   0.781E-04    0.919E-04
DAV:   7    -0.138038032452E+04   -0.49942E-07   -0.79581E-08  4320   0.260E-04    0.442E-04
DAV:   8    -0.138038032461E+04   -0.85012E-07   -0.25464E-08  3968   0.211E-04    0.200E-04
DAV:   9    -0.138038032469E+04   -0.79250E-07   -0.11700E-08  3648   0.151E-04    0.131E-04
DAV:  10    -0.138038032480E+04   -0.11531E-06   -0.71911E-09  3264   0.141E-04    0.982E-05
DAV:  11    -0.138038032488E+04   -0.74593E-07   -0.71635E-09  3584   0.111E-04    0.846E-05
DAV:  12    -0.138038032495E+04   -0.69820E-07   -0.44178E-09  3056   0.104E-04    0.398E-05
DAV:  13    -0.138038032501E+04   -0.61016E-07   -0.49766E-09  3136   0.106E-04    0.412E-05
DAV:  14    -0.138038032503E+04   -0.22774E-07   -0.32161E-09  3072   0.913E-05    0.268E-05
DAV:  15    -0.138038032505E+04   -0.18859E-07   -0.21993E-09  3040   0.676E-05    0.175E-05
DAV:  16    -0.138038032506E+04   -0.13111E-07   -0.10548E-09  3072   0.410E-05    0.190E-05
DAV:  17    -0.138038032507E+04   -0.29104E-08   -0.35420E-10  2976   0.251E-05
  36 F= -.13998979E+04 E0= -.13998979E+04  d E =-.223365E-03  mag=    -0.0000
       N       E                     dE             d eps       ncg     rms          rms(c)
DAV:   1    -0.138037971236E+04    0.61271E-03   -0.80680E-02  5152   0.189E-01    0.120E-01
DAV:   2    -0.138037957667E+04    0.13568E-03   -0.10777E-03  5312   0.232E-02    0.672E-02
DAV:   3    -0.138037954848E+04    0.28195E-04   -0.58171E-04  5376   0.158E-02    0.234E-02
DAV:   4    -0.138037953796E+04    0.10515E-04   -0.62946E-05  5216   0.523E-03    0.149E-02
DAV:   5    -0.138037953654E+04    0.14251E-05   -0.17352E-05  5472   0.286E-03    0.353E-03
DAV:   6    -0.138037953621E+04    0.32714E-06   -0.19027E-06  5376   0.117E-03    0.124E-03
DAV:   7    -0.138037953616E+04    0.51863E-07   -0.29923E-07  5248   0.445E-04    0.866E-04
DAV:   8    -0.138037953621E+04   -0.50684E-07   -0.54876E-08  4192   0.349E-04    0.370E-04
DAV:   9    -0.138037953629E+04   -0.82277E-07   -0.41186E-08  4192   0.273E-04    0.240E-04
DAV:  10    -0.138037953644E+04   -0.14427E-06   -0.14063E-08  3712   0.170E-04    0.155E-04
DAV:  11    -0.138037953657E+04   -0.13113E-06   -0.67371E-09  3296   0.142E-04    0.946E-05
DAV:  12    -0.138037953673E+04   -0.16240E-06   -0.14413E-08  3840   0.156E-04    0.749E-05
DAV:  13    -0.138037953682E+04   -0.85944E-07   -0.60315E-09  3392   0.112E-04    0.609E-05
DAV:  14    -0.138037953688E+04   -0.62311E-07   -0.38481E-09  3072   0.902E-05    0.357E-05
DAV:  15    -0.138037953694E+04   -0.62864E-07   -0.41872E-09  3136   0.881E-05    0.385E-05
DAV:  16    -0.138037953696E+04   -0.17317E-07   -0.19685E-09  3072   0.627E-05    0.275E-05
DAV:  17    -0.138037953699E+04   -0.26717E-07   -0.14794E-09  3040   0.478E-05    0.316E-05
DAV:  18    -0.138037953700E+04   -0.11831E-07   -0.64093E-10  3072   0.313E-05    0.290E-05
DAV:  19    -0.138037953700E+04   -0.29977E-08   -0.18193E-10  2880   0.214E-05
  37 F= -.13998970E+04 E0= -.13998970E+04  d E =0.959333E-03  mag=    -0.0000
       N       E                     dE             d eps       ncg     rms          rms(c)
DAV:   1    -0.138038021758E+04   -0.68058E-03   -0.81089E-02  5184   0.206E-01    0.122E-01
DAV:   2    -0.138038010874E+04    0.10883E-03   -0.14458E-03  5376   0.289E-02    0.716E-02
DAV:   3    -0.138038007086E+04    0.37881E-04   -0.76193E-04  5376   0.186E-02    0.257E-02
DAV:   4    -0.138038005797E+04    0.12891E-04   -0.99741E-05  5216   0.639E-03    0.167E-02
DAV:   5    -0.138038005577E+04    0.22008E-05   -0.22699E-05  5696   0.329E-03    0.455E-03
DAV:   6    -0.138038005540E+04    0.36710E-06   -0.34117E-06  5088   0.135E-03    0.128E-03
DAV:   7    -0.138038005546E+04   -0.59867E-07   -0.49306E-07  5120   0.500E-04    0.103E-03
DAV:   8    -0.138038005553E+04   -0.65222E-07   -0.50301E-08  3936   0.243E-04    0.475E-04
DAV:   9    -0.138038005563E+04   -0.10007E-06   -0.41884E-08  4096   0.224E-04    0.200E-04
DAV:  10    -0.138038005572E+04   -0.88330E-07   -0.93867E-09  3424   0.116E-04    0.157E-04
DAV:  11    -0.138038005582E+04   -0.99782E-07   -0.52766E-09  3232   0.915E-05    0.813E-05
DAV:  12    -0.138038005590E+04   -0.86700E-07   -0.57989E-09  3360   0.921E-05    0.581E-05
DAV:  13    -0.138038005598E+04   -0.72381E-07   -0.64475E-09  3312   0.104E-04    0.577E-05
DAV:  14    -0.138038005602E+04   -0.40032E-07   -0.48169E-09  3104   0.988E-05    0.276E-05
DAV:  15    -0.138038005604E+04   -0.26281E-07   -0.30205E-09  3072   0.697E-05    0.374E-05
DAV:  16    -0.138038005606E+04   -0.19994E-07   -0.16679E-09  3072   0.479E-05    0.218E-05
DAV:  17    -0.138038005607E+04   -0.10798E-07   -0.89596E-10  3072   0.322E-05    0.218E-05
DAV:  18    -0.138038005608E+04   -0.36380E-08   -0.35316E-10  2944   0.224E-05
  38 F= -.13998977E+04 E0= -.13998977E+04  d E =-.674160E-03  mag=     0.0000
       N       E                     dE             d eps       ncg     rms          rms(c)
DAV:   1    -0.138038043492E+04   -0.37884E-03   -0.75736E-02  4960   0.200E-01    0.971E-02
DAV:   2    -0.138038039391E+04    0.41004E-04   -0.70912E-04  5248   0.198E-02    0.557E-02
DAV:   3    -0.138038037941E+04    0.14505E-04   -0.26211E-04  5344   0.112E-02    0.151E-02
DAV:   4    -0.138038037543E+04    0.39745E-05   -0.31034E-05  5216   0.383E-03    0.887E-03
DAV:   5    -0.138038037509E+04    0.34456E-06   -0.92033E-06  5280   0.218E-03    0.178E-03
DAV:   6    -0.138038037511E+04   -0.20329E-07   -0.65906E-07  4832   0.704E-04    0.916E-04
DAV:   7    -0.138038037517E+04   -0.57655E-07   -0.93773E-08  4448   0.245E-04    0.404E-04
DAV:   8    -0.138038037523E+04   -0.61482E-07   -0.17651E-08  3616   0.161E-04    0.185E-04
DAV:   9    -0.138038037529E+04   -0.57829E-07   -0.64554E-09  3392   0.109E-04    0.103E-04
DAV:  10    -0.138038037535E+04   -0.66022E-07   -0.46903E-09  3152   0.104E-04    0.703E-05
DAV:  11    -0.138038037540E+04   -0.44762E-07   -0.31840E-09  3104   0.780E-05    0.611E-05
DAV:  12    -0.138038037545E+04   -0.48924E-07   -0.32878E-09  3008   0.856E-05    0.319E-05
DAV:  13    -0.138038037548E+04   -0.33673E-07   -0.35023E-09  3104   0.826E-05    0.325E-05
DAV:  14    -0.138038037549E+04   -0.13140E-07   -0.21605E-09  3072   0.662E-05    0.191E-05
DAV:  15    -0.138038037551E+04   -0.13126E-07   -0.13304E-09  3056   0.425E-05    0.210E-05
DAV:  16    -0.138038037551E+04   -0.65484E-08   -0.51650E-10  3072   0.279E-05
  39 F= -.13998979E+04 E0= -.13998979E+04  d E =-.270529E-03  mag=    -0.0000
       N       E                     dE             d eps       ncg     rms          rms(c)
DAV:   1    -0.138037991125E+04    0.46425E-03   -0.78747E-02  5056   0.204E-01    0.115E-01
DAV:   2    -0.138037980041E+04    0.11085E-03   -0.98467E-04  5376   0.234E-02    0.646E-02
DAV:   3    -0.138037977553E+04    0.24876E-04   -0.49857E-04  5344   0.152E-02    0.211E-02
DAV:   4    -0.138037976698E+04    0.85482E-05   -0.59918E-05  5216   0.517E-03    0.130E-02
DAV:   5    -0.138037976628E+04    0.70353E-06   -0.14201E-05  5664   0.266E-03    0.287E-03
DAV:   6    -0.138037976619E+04    0.90120E-07   -0.11784E-06  4800   0.893E-04    0.117E-03
DAV:   7    -0.138037976618E+04    0.12646E-07   -0.24612E-07  5184   0.367E-04    0.728E-04
DAV:   8    -0.138037976623E+04   -0.59619E-07   -0.30459E-08  3904   0.233E-04    0.317E-04
DAV:   9    -0.138037976630E+04   -0.63854E-07   -0.19843E-08  3936   0.185E-04    0.153E-04
DAV:  10    -0.138037976638E+04   -0.86278E-07   -0.71798E-09  3280   0.128E-04    0.994E-05
DAV:  11    -0.138037976646E+04   -0.71494E-07   -0.46656E-09  3152   0.103E-04    0.696E-05
DAV:  12    -0.138037976654E+04   -0.81040E-07   -0.75141E-09  3312   0.120E-04    0.433E-05
DAV:  13    -0.138037976658E+04   -0.45635E-07   -0.47247E-09  3168   0.107E-04    0.436E-05
DAV:  14    -0.138037976661E+04   -0.23516E-07   -0.29651E-09  3072   0.832E-05    0.262E-05
DAV:  15    -0.138037976664E+04   -0.31912E-07   -0.25712E-09  3040   0.653E-05    0.274E-05
DAV:  16    -0.138037976665E+04   -0.10943E-07   -0.10721E-09  3072   0.392E-05    0.228E-05
DAV:  17    -0.138037976666E+04   -0.97061E-08   -0.71879E-10  3072   0.341E-05
  40 F= -.13998971E+04 E0= -.13998971E+04  d E =0.787022E-03  mag=    -0.0000
       N       E                     dE             d eps       ncg     rms          rms(c)
DAV:   1    -0.138038001381E+04   -0.24716E-03   -0.80186E-02  5056   0.205E-01    0.119E-01
DAV:   2    -0.138037992981E+04    0.83998E-04   -0.13946E-03  5248   0.285E-02    0.719E-02
DAV:   3    -0.138037987784E+04    0.51968E-04   -0.77432E-04  5280   0.204E-02    0.237E-02
DAV:   4    -0.138037986927E+04    0.85693E-05   -0.92051E-05  5184   0.669E-03    0.165E-02
DAV:   5    -0.138037986654E+04    0.27366E-05   -0.26587E-05  4848   0.362E-03    0.452E-03
DAV:   6    -0.138037986653E+04    0.76543E-08   -0.32111E-06  5312   0.132E-03    0.143E-03
DAV:   7    -0.138037986671E+04   -0.18193E-06   -0.46349E-07  4544   0.511E-04    0.865E-04
DAV:   8    -0.138037986688E+04   -0.17435E-06   -0.66476E-08  4192   0.280E-04    0.443E-04
DAV:   9    -0.138037986702E+04   -0.13583E-06   -0.24958E-08  3808   0.174E-04    0.173E-04
DAV:  10    -0.138037986713E+04   -0.10806E-06   -0.85948E-09  3360   0.114E-04    0.972E-05
DAV:  11    -0.138037986722E+04   -0.90891E-07   -0.33722E-09  3136   0.779E-05    0.787E-05
DAV:  12    -0.138037986732E+04   -0.10434E-06   -0.46265E-09  3200   0.858E-05    0.379E-05
DAV:  13    -0.138037986738E+04   -0.59590E-07   -0.31188E-09  3072   0.661E-05    0.319E-05
DAV:  14    -0.138037986742E+04   -0.36875E-07   -0.20675E-09  3072   0.541E-05    0.229E-05
DAV:  15    -0.138037986745E+04   -0.32436E-07   -0.16192E-09  3072   0.446E-05    0.198E-05
DAV:  16    -0.138037986747E+04   -0.13213E-07   -0.72962E-10  3072   0.318E-05    0.110E-05
DAV:  17    -0.138037986748E+04   -0.16182E-07   -0.58853E-10  3072   0.295E-05    0.207E-05
DAV:  18    -0.138037986749E+04   -0.53842E-08   -0.15229E-10  3072   0.209E-05
  41 F= -.13998975E+04 E0= -.13998975E+04  d E =-.391708E-03  mag=     0.0000
       N       E                     dE             d eps       ncg     rms          rms(c)
DAV:   1    -0.138038048720E+04   -0.61971E-03   -0.77544E-02  4512   0.190E-01    0.105E-01
DAV:   2    -0.138038040385E+04    0.83350E-04   -0.76398E-04  4704   0.199E-02    0.600E-02
DAV:   3    -0.138038038356E+04    0.20287E-04   -0.36600E-04  5024   0.122E-02    0.180E-02
DAV:   4    -0.138038037709E+04    0.64664E-05   -0.39909E-05  4736   0.423E-03    0.109E-02
DAV:   5    -0.138038037675E+04    0.33979E-06   -0.11912E-05  5184   0.243E-03    0.222E-03
DAV:   6    -0.138038037698E+04   -0.23191E-06   -0.89420E-07  4800   0.736E-04    0.103E-03
DAV:   7    -0.138038037728E+04   -0.29737E-06   -0.17376E-07  4736   0.312E-04    0.581E-04
DAV:   8    -0.138038037763E+04   -0.35038E-06   -0.31289E-08  3840   0.156E-04    0.248E-04
DAV:   9    -0.138038037797E+04   -0.33758E-06   -0.16446E-08  3744   0.110E-04    0.153E-04
DAV:  10    -0.138038037833E+04   -0.36058E-06   -0.11297E-08  3648   0.988E-05    0.100E-04
DAV:  11    -0.138038037860E+04   -0.26776E-06   -0.86326E-09  3616   0.812E-05    0.658E-05
DAV:  12    -0.138038037883E+04   -0.23021E-06   -0.84264E-09  3552   0.778E-05    0.527E-05
DAV:  13    -0.138038037893E+04   -0.10246E-06   -0.35132E-09  3168   0.676E-05    0.375E-05
DAV:  14    -0.138038037901E+04   -0.78857E-07   -0.35703E-09  3040   0.674E-05    0.290E-05
DAV:  15    -0.138038037904E+04   -0.32596E-07   -0.21842E-09  3072   0.569E-05    0.244E-05
DAV:  16    -0.138038037906E+04   -0.14101E-07   -0.10842E-09  3136   0.381E-05    0.151E-05
DAV:  17    -0.138038037907E+04   -0.10536E-07   -0.66648E-10  3072   0.296E-05    0.187E-05
DAV:  18    -0.138038037907E+04   -0.25029E-08   -0.17185E-10  3072   0.197E-05
  42 F= -.13998979E+04 E0= -.13998979E+04  d E =-.326107E-03  mag=     0.0000
       N       E                     dE             d eps       ncg     rms          rms(c)
DAV:   1    -0.138037993264E+04    0.44643E-03   -0.78905E-02  4352   0.190E-01    0.113E-01
DAV:   2    -0.138037982962E+04    0.10302E-03   -0.97973E-04  4768   0.214E-02    0.642E-02
DAV:   3    -0.138037980141E+04    0.28215E-04   -0.48928E-04  5312   0.144E-02    0.211E-02
DAV:   4    -0.138037979261E+04    0.87977E-05   -0.55999E-05  4960   0.496E-03    0.129E-02
DAV:   5    -0.138037979180E+04    0.81025E-06   -0.15191E-05  5504   0.262E-03    0.275E-03
DAV:   6    -0.138037979193E+04   -0.13523E-06   -0.11509E-06  4576   0.807E-04    0.110E-03
DAV:   7    -0.138037979226E+04   -0.32671E-06   -0.26958E-07  5008   0.388E-04    0.724E-04
DAV:   8    -0.138037979264E+04   -0.38024E-06   -0.44274E-08  4032   0.200E-04    0.309E-04
DAV:   9    -0.138037979301E+04   -0.36409E-06   -0.32139E-08  4064   0.151E-04    0.202E-04
DAV:  10    -0.138037979330E+04   -0.29201E-06   -0.94985E-09  3616   0.948E-05    0.122E-04
DAV:  11    -0.138037979360E+04   -0.30044E-06   -0.15078E-08  3968   0.976E-05    0.736E-05
DAV:  12    -0.138037979378E+04   -0.18223E-06   -0.65675E-09  3488   0.839E-05    0.625E-05
DAV:  13    -0.138037979391E+04   -0.12900E-06   -0.57080E-09  3296   0.809E-05    0.369E-05
DAV:  14    -0.138037979399E+04   -0.80850E-07   -0.44106E-09  3136   0.785E-05    0.233E-05
DAV:  15    -0.138037979406E+04   -0.65178E-07   -0.44761E-09  3200   0.714E-05    0.194E-05
DAV:  16    -0.138037979409E+04   -0.29642E-07   -0.17958E-09  3072   0.481E-05    0.146E-05
DAV:  17    -0.138037979411E+04   -0.28143E-07   -0.97671E-10  3072   0.306E-05    0.887E-06
DAV:  18    -0.138037979413E+04   -0.11903E-07   -0.54081E-10  3072   0.256E-05    0.111E-05
DAV:  19    -0.138037979413E+04   -0.46275E-08   -0.12967E-10  3104   0.151E-05
  43 F= -.13998973E+04 E0= -.13998973E+04  d E =0.595910E-03  mag=     0.0000
       N       E                     dE             d eps       ncg     rms          rms(c)
DAV:   1    -0.138037976639E+04    0.27732E-04   -0.80907E-02  4640   0.192E-01    0.122E-01
DAV:   2    -0.138037965642E+04    0.10997E-03   -0.14922E-03  5152   0.265E-02    0.711E-02
DAV:   3    -0.138037962385E+04    0.32574E-04   -0.78179E-04  5312   0.176E-02    0.276E-02
DAV:   4    -0.138037960856E+04    0.15289E-04   -0.95037E-05  4992   0.599E-03    0.168E-02
DAV:   5    -0.138037960649E+04    0.20728E-05   -0.26509E-05  5056   0.329E-03    0.293E-03
DAV:   6    -0.138037960644E+04    0.48516E-07   -0.20247E-06  4640   0.105E-03    0.112E-03
DAV:   7    -0.138037960655E+04   -0.10982E-06   -0.33612E-07  4960   0.425E-04    0.828E-04
[...]
DAV:   6    -0.138037838071E+04   -0.66984E-06   -0.18391E-06  5024   0.101E-03    0.189E-03
DAV:   7    -0.138037838149E+04   -0.78074E-06   -0.34255E-07  4480   0.585E-04    0.676E-04
DAV:   8    -0.138037838214E+04   -0.64856E-06   -0.11691E-07  4992   0.376E-04    0.320E-04
DAV:   9    -0.138037838267E+04   -0.52806E-06   -0.20406E-08  3872   0.176E-04    0.206E-04
DAV:  10    -0.138037838342E+04   -0.74747E-06   -0.29792E-08  4096   0.213E-04    0.128E-04
DAV:  11    -0.138037838383E+04   -0.41106E-06   -0.19178E-08  3968   0.160E-04    0.923E-05
DAV:  12    -0.138037838419E+04   -0.36201E-06   -0.11285E-08  3792   0.121E-04    0.630E-05
DAV:  13    -0.138037838442E+04   -0.23049E-06   -0.65400E-09  3520   0.777E-05    0.389E-05
DAV:  14    -0.138037838454E+04   -0.11877E-06   -0.32747E-09  3072   0.592E-05    0.241E-05
DAV:  15    -0.138037838461E+04   -0.66051E-07   -0.27122E-09  3072   0.609E-05    0.196E-05
DAV:  16    -0.138037838465E+04   -0.41313E-07   -0.20624E-09  3008   0.508E-05    0.127E-05
DAV:  17    -0.138037838467E+04   -0.21915E-07   -0.10928E-09  3008   0.366E-05    0.103E-05
DAV:  18    -0.138037838468E+04   -0.89640E-08   -0.56617E-10  3008   0.263E-05
  60 F= -.13998960E+04 E0= -.13998960E+04  d E =-.431337E-03  mag=    -0.0000
       N       E                     dE             d eps       ncg     rms          rms(c)
DAV:   1    -0.138037829068E+04    0.93993E-04   -0.48718E-01  4864   0.510E-01    0.138E-01
DAV:   2    -0.138037843952E+04   -0.14885E-03   -0.42782E-03  5248   0.461E-02    0.857E-02
DAV:   3    -0.138037834035E+04    0.99168E-04   -0.55884E-04  5440   0.165E-02    0.270E-02
DAV:   4    -0.138037834589E+04   -0.55368E-05   -0.83122E-05  5744   0.542E-03    0.108E-02
DAV:   5    -0.138037834458E+04    0.13083E-05   -0.14158E-05  5216   0.265E-03    0.363E-03
DAV:   6    -0.138037834479E+04   -0.21060E-06   -0.14390E-06  4992   0.950E-04    0.166E-03
DAV:   7    -0.138037834512E+04   -0.32666E-06   -0.36109E-07  4480   0.580E-04    0.495E-04
DAV:   8    -0.138037834544E+04   -0.32352E-06   -0.93760E-08  4768   0.300E-04    0.314E-04
DAV:   9    -0.138037834579E+04   -0.34447E-06   -0.15508E-08  3712   0.162E-04    0.194E-04
DAV:  10    -0.138037834631E+04   -0.51710E-06   -0.28750E-08  4064   0.222E-04    0.112E-04
DAV:  11    -0.138037834660E+04   -0.29625E-06   -0.17277E-08  3936   0.157E-04    0.864E-05
DAV:  12    -0.138037834683E+04   -0.22801E-06   -0.58389E-09  3232   0.105E-04    0.619E-05
DAV:  13    -0.138037834707E+04   -0.23868E-06   -0.12212E-08  3744   0.103E-04    0.406E-05
DAV:  14    -0.138037834714E+04   -0.72381E-07   -0.27402E-09  3072   0.715E-05    0.278E-05
DAV:  15    -0.138037834720E+04   -0.58528E-07   -0.17735E-09  3072   0.489E-05    0.188E-05
DAV:  16    -0.138037834724E+04   -0.36103E-07   -0.11982E-09  3072   0.425E-05    0.153E-05
DAV:  17    -0.138037834725E+04   -0.18743E-07   -0.10022E-09  3072   0.445E-05    0.919E-06
DAV:  18    -0.138037834726E+04   -0.10012E-07   -0.61792E-10  3072   0.350E-05    0.114E-05
DAV:  19    -0.138037834727E+04   -0.14406E-08   -0.51916E-11  2944   0.166E-05
  61 F= -.13998955E+04 E0= -.13998955E+04  d E =0.505766E-03  mag=     0.0000
       N       E                     dE             d eps       ncg     rms          rms(c)
DAV:   1    -0.138037819338E+04    0.15389E-03   -0.48872E-01  4864   0.560E-01    0.135E-01
DAV:   2    -0.138037840650E+04   -0.21313E-03   -0.45816E-03  5344   0.500E-02    0.903E-02
DAV:   3    -0.138037828785E+04    0.11865E-03   -0.49421E-04  5440   0.172E-02    0.293E-02
DAV:   4    -0.138037829614E+04   -0.82887E-05   -0.15892E-04  5792   0.678E-03    0.105E-02
DAV:   5    -0.138037829430E+04    0.18349E-05   -0.19745E-05  5184   0.304E-03    0.484E-03
DAV:   6    -0.138037829539E+04   -0.10821E-05   -0.25014E-06  5056   0.103E-03    0.189E-03
DAV:   7    -0.138037829653E+04   -0.11411E-05   -0.45654E-07  4544   0.566E-04    0.759E-04
DAV:   8    -0.138037829769E+04   -0.11684E-05   -0.13486E-07  4960   0.293E-04    0.393E-04
DAV:   9    -0.138037829861E+04   -0.91216E-06   -0.29344E-08  4128   0.138E-04    0.232E-04
DAV:  10    -0.138037829985E+04   -0.12459E-05   -0.56344E-08  4512   0.155E-04    0.134E-04
DAV:  11    -0.138037830058E+04   -0.73196E-06   -0.25545E-08  4352   0.118E-04    0.102E-04
DAV:  12    -0.138037830134E+04   -0.75295E-06   -0.33604E-08  4384   0.126E-04    0.712E-05
DAV:  13    -0.138037830170E+04   -0.36540E-06   -0.13566E-08  3808   0.107E-04    0.469E-05
DAV:  14    -0.138037830187E+04   -0.16855E-06   -0.57325E-09  3232   0.103E-04    0.300E-05
DAV:  15    -0.138037830197E+04   -0.95068E-07   -0.42395E-09  3136   0.922E-05    0.232E-05
DAV:  16    -0.138037830203E+04   -0.63126E-07   -0.20410E-09  3072   0.580E-05    0.148E-05
DAV:  17    -0.138037830207E+04   -0.41357E-07   -0.10715E-09  3040   0.382E-05    0.114E-05
DAV:  18    -0.138037830209E+04   -0.22410E-07   -0.50233E-10  3040   0.289E-05    0.908E-06
DAV:  19    -0.138037830210E+04   -0.95897E-08   -0.16785E-10  3008   0.186E-05
  62 F= -.13998958E+04 E0= -.13998958E+04  d E =-.288978E-03  mag=     0.0000
       N       E                     dE             d eps       ncg     rms          rms(c)
DAV:   1    -0.138037861924E+04   -0.31715E-03   -0.48613E-01  4736   0.541E-01    0.138E-01
DAV:   2    -0.138037876984E+04   -0.15060E-03   -0.42231E-03  5280   0.468E-02    0.857E-02
DAV:   3    -0.138037865826E+04    0.11158E-03   -0.55980E-04  5504   0.173E-02    0.284E-02
DAV:   4    -0.138037866236E+04   -0.40950E-05   -0.10347E-04  5664   0.637E-03    0.120E-02
DAV:   5    -0.138037866062E+04    0.17410E-05   -0.17701E-05  4992   0.278E-03    0.463E-03
DAV:   6    -0.138037866111E+04   -0.49510E-06   -0.23316E-06  5440   0.108E-03    0.178E-03
DAV:   7    -0.138037866176E+04   -0.64446E-06   -0.26319E-07  4640   0.563E-04    0.577E-04
DAV:   8    -0.138037866223E+04   -0.47420E-06   -0.87105E-08  4800   0.311E-04    0.343E-04
DAV:   9    -0.138037866275E+04   -0.52403E-06   -0.19385E-08  3872   0.174E-04    0.201E-04
DAV:  10    -0.138037866329E+04   -0.53417E-06   -0.21008E-08  4096   0.176E-04    0.124E-04
DAV:  11    -0.138037866373E+04   -0.44351E-06   -0.18075E-08  3936   0.155E-04    0.867E-05
DAV:  12    -0.138037866405E+04   -0.32362E-06   -0.10850E-08  3680   0.115E-04    0.571E-05
DAV:  13    -0.138037866425E+04   -0.19105E-06   -0.53926E-09  3200   0.836E-05    0.343E-05
DAV:  14    -0.138037866436E+04   -0.11406E-06   -0.51586E-09  3168   0.885E-05    0.231E-05
DAV:  15    -0.138037866441E+04   -0.51630E-07   -0.34648E-09  3072   0.811E-05    0.162E-05
DAV:  16    -0.138037866444E+04   -0.32946E-07   -0.17018E-09  3072   0.469E-05    0.106E-05
DAV:  17    -0.138037866446E+04   -0.19514E-07   -0.10044E-09  3008   0.355E-05    0.703E-06
DAV:  18    -0.138037866447E+04   -0.55588E-08   -0.39188E-10  3072   0.251E-05
  63 F= -.13998962E+04 E0= -.13998962E+04  d E =-.388755E-03  mag=    -0.0000
       N       E                     dE             d eps       ncg     rms          rms(c)
DAV:   1    -0.138037832175E+04    0.34272E-03   -0.48695E-01  4832   0.539E-01    0.138E-01
DAV:   2    -0.138037845229E+04   -0.13054E-03   -0.41874E-03  5312   0.474E-02    0.842E-02
DAV:   3    -0.138037835489E+04    0.97395E-04   -0.56506E-04  5440   0.170E-02    0.264E-02
DAV:   4    -0.138037836074E+04   -0.58509E-05   -0.87707E-05  5760   0.552E-03    0.106E-02
DAV:   5    -0.138037835951E+04    0.12322E-05   -0.14238E-05  5088   0.262E-03    0.357E-03
DAV:   6    -0.138037835983E+04   -0.31773E-06   -0.17700E-06  4832   0.990E-04    0.154E-03
DAV:   7    -0.138037836015E+04   -0.32005E-06   -0.31762E-07  4432   0.519E-04    0.526E-04
DAV:   8    -0.138037836047E+04   -0.32334E-06   -0.86316E-08  4640   0.262E-04    0.292E-04
DAV:   9    -0.138037836076E+04   -0.28717E-06   -0.15970E-08  3712   0.140E-04    0.189E-04
DAV:  10    -0.138037836117E+04   -0.40757E-06   -0.19237E-08  4032   0.152E-04    0.104E-04
DAV:  11    -0.138037836146E+04   -0.29124E-06   -0.12543E-08  3744   0.122E-04    0.718E-05
DAV:  12    -0.138037836168E+04   -0.22203E-06   -0.66470E-09  3296   0.900E-05    0.526E-05
DAV:  13    -0.138037836188E+04   -0.19485E-06   -0.89200E-09  3520   0.910E-05    0.323E-05
DAV:  14    -0.138037836195E+04   -0.75757E-07   -0.32677E-09  3072   0.702E-05    0.230E-05
DAV:  15    -0.138037836199E+04   -0.40542E-07   -0.18577E-09  3104   0.475E-05    0.150E-05
DAV:  16    -0.138037836202E+04   -0.27328E-07   -0.13435E-09  3072   0.396E-05    0.978E-06
DAV:  17    -0.138037836203E+04   -0.85565E-08   -0.73420E-10  3072   0.351E-05
  64 F= -.13998955E+04 E0= -.13998955E+04  d E =0.676829E-03  mag=    -0.0000
       N       E                     dE             d eps       ncg     rms          rms(c)
DAV:   1    -0.138037794522E+04    0.41680E-03   -0.48384E-01  4896   0.566E-01    0.131E-01
DAV:   2    -0.138037812683E+04   -0.18161E-03   -0.41107E-03  5376   0.486E-02    0.880E-02
DAV:   3    -0.138037801600E+04    0.11083E-03   -0.48288E-04  5440   0.171E-02    0.247E-02
DAV:   4    -0.138037802316E+04   -0.71634E-05   -0.10991E-04  6016   0.595E-03    0.949E-03
DAV:   5    -0.138037802172E+04    0.14406E-05   -0.17777E-05  5024   0.293E-03    0.395E-03
DAV:   6    -0.138037802249E+04   -0.76849E-06   -0.17578E-06  4640   0.949E-04    0.181E-03
DAV:   7    -0.138037802351E+04   -0.10221E-05   -0.46366E-07  4384   0.626E-04    0.671E-04
DAV:   8    -0.138037802436E+04   -0.84974E-06   -0.13542E-07  5184   0.343E-04    0.381E-04
DAV:   9    -0.138037802520E+04   -0.84162E-06   -0.32802E-08  4096   0.193E-04    0.250E-04
DAV:  10    -0.138037802634E+04   -0.11338E-05   -0.50778E-08  4192   0.234E-04    0.134E-04
DAV:  11    -0.138037802698E+04   -0.64237E-06   -0.28328E-08  4320   0.172E-04    0.105E-04
DAV:  12    -0.138037802752E+04   -0.53832E-06   -0.17051E-08  3808   0.136E-04    0.659E-05
DAV:  13    -0.138037802787E+04   -0.35562E-06   -0.12770E-08  3712   0.114E-04    0.426E-05
DAV:  14    -0.138037802803E+04   -0.15809E-06   -0.46934E-09  3136   0.997E-05    0.284E-05
DAV:  15    -0.138037802813E+04   -0.10316E-06   -0.36747E-09  3072   0.769E-05    0.193E-05
DAV:  16    -0.138037802820E+04   -0.68845E-07   -0.26494E-09  3072   0.634E-05    0.136E-05
DAV:  17    -0.138037802823E+04   -0.29351E-07   -0.16262E-09  3072   0.537E-05    0.965E-06
DAV:  18    -0.138037802825E+04   -0.15905E-07   -0.77651E-10  3072   0.330E-05    0.800E-06
DAV:  19    -0.138037802826E+04   -0.67666E-08   -0.22564E-10  3072   0.184E-05
  65 F= -.13998957E+04 E0= -.13998957E+04  d E =-.133292E-03  mag=     0.0000
       N       E                     dE             d eps       ncg     rms          rms(c)
DAV:   1    -0.138037850629E+04   -0.47805E-03   -0.48627E-01  4928   0.529E-01    0.138E-01
DAV:   2    -0.138037863615E+04   -0.12986E-03   -0.40524E-03  5280   0.466E-02    0.860E-02
DAV:   3    -0.138037852790E+04    0.10826E-03   -0.58365E-04  5472   0.171E-02    0.265E-02
DAV:   4    -0.138037853320E+04   -0.53031E-05   -0.10030E-04  5440   0.567E-03    0.110E-02
DAV:   5    -0.138037853199E+04    0.12128E-05   -0.17887E-05  4992   0.290E-03    0.386E-03
DAV:   6    -0.138037853281E+04   -0.82345E-06   -0.16470E-06  4640   0.898E-04    0.175E-03
DAV:   7    -0.138037853370E+04   -0.88969E-06   -0.35805E-07  4384   0.529E-04    0.527E-04
DAV:   8    -0.138037853434E+04   -0.63707E-06   -0.10275E-07  4768   0.267E-04    0.324E-04
DAV:   9    -0.138037853497E+04   -0.63759E-06   -0.27122E-08  4096   0.152E-04    0.181E-04
DAV:  10    -0.138037853566E+04   -0.68646E-06   -0.29809E-08  4192   0.159E-04    0.125E-04
DAV:  11    -0.138037853616E+04   -0.50233E-06   -0.21597E-08  4064   0.140E-04    0.876E-05
DAV:  12    -0.138037853655E+04   -0.38614E-06   -0.15675E-08  3872   0.117E-04    0.539E-05
DAV:  13    -0.138037853677E+04   -0.21828E-06   -0.67091E-09  3360   0.913E-05    0.400E-05
DAV:  14    -0.138037853689E+04   -0.12008E-06   -0.42703E-09  3136   0.885E-05    0.243E-05
DAV:  15    -0.138037853697E+04   -0.80458E-07   -0.31489E-09  3072   0.734E-05    0.177E-05
DAV:  16    -0.138037853702E+04   -0.51252E-07   -0.18297E-09  3072   0.499E-05    0.137E-05
DAV:  17    -0.138037853704E+04   -0.24855E-07   -0.10468E-09  3072   0.403E-05    0.880E-06
DAV:  18    -0.138037853706E+04   -0.13912E-07   -0.49404E-10  3072   0.271E-05    0.888E-06
DAV:  19    -0.138037853706E+04   -0.59954E-08   -0.82302E-11  3072   0.152E-05
  66 F= -.13998960E+04 E0= -.13998960E+04  d E =-.346350E-03  mag=     0.0000
       N       E                     dE             d eps       ncg     rms          rms(c)
DAV:   1    -0.138037826060E+04    0.27645E-03   -0.48828E-01  4928   0.538E-01    0.139E-01
DAV:   2    -0.138037838094E+04   -0.12034E-03   -0.41707E-03  5440   0.472E-02    0.854E-02
DAV:   3    -0.138037828033E+04    0.10062E-03   -0.58175E-04  5440   0.168E-02    0.254E-02
DAV:   4    -0.138037828625E+04   -0.59262E-05   -0.86269E-05  5696   0.511E-03    0.100E-02
DAV:   5    -0.138037828528E+04    0.97524E-06   -0.13716E-05  5040   0.260E-03    0.333E-03
DAV:   6    -0.138037828578E+04   -0.50386E-06   -0.13580E-06  4736   0.871E-04    0.157E-03
DAV:   7    -0.138037828652E+04   -0.74196E-06   -0.36065E-07  4448   0.471E-04    0.525E-04
DAV:   8    -0.138037828714E+04   -0.61699E-06   -0.77187E-08  4480   0.236E-04    0.305E-04
DAV:   9    -0.138037828773E+04   -0.59341E-06   -0.21006E-08  3936   0.119E-04    0.206E-04
DAV:  10    -0.138037828873E+04   -0.99571E-06   -0.47349E-08  4096   0.155E-04    0.120E-04
DAV:  11    -0.138037828922E+04   -0.48822E-06   -0.16558E-08  3936   0.109E-04    0.878E-05
DAV:  12    -0.138037828967E+04   -0.45680E-06   -0.15363E-08  3936   0.106E-04    0.606E-05
DAV:  13    -0.138037828992E+04   -0.24548E-06   -0.65351E-09  3392   0.913E-05    0.392E-05
DAV:  14    -0.138037829006E+04   -0.14408E-06   -0.42236E-09  3136   0.795E-05    0.258E-05
DAV:  15    -0.138037829013E+04   -0.65862E-07   -0.23502E-09  3088   0.631E-05    0.215E-05
DAV:  16    -0.138037829018E+04   -0.52343E-07   -0.17984E-09  3072   0.487E-05    0.123E-05
DAV:  17    -0.138037829020E+04   -0.22163E-07   -0.10781E-09  3072   0.417E-05    0.142E-05
DAV:  18    -0.138037829021E+04   -0.53114E-08   -0.36408E-10  3120   0.248E-05
  67 F= -.13998955E+04 E0= -.13998955E+04  d E =0.526127E-03  mag=    -0.0000
       N       E                     dE             d eps       ncg     rms          rms(c)
DAV:   1    -0.138037807689E+04    0.21332E-03   -0.49631E-01  4928   0.562E-01    0.137E-01
DAV:   2    -0.138037820423E+04   -0.12734E-03   -0.41894E-03  5408   0.484E-02    0.930E-02
DAV:   3    -0.138037806561E+04    0.13862E-03   -0.60144E-04  5440   0.185E-02    0.211E-02
DAV:   4    -0.138037807872E+04   -0.13107E-04   -0.14799E-04  6016   0.539E-03    0.847E-03
DAV:   5    -0.138037807768E+04    0.10370E-05   -0.87445E-06  4992   0.203E-03    0.454E-03
DAV:   6    -0.138037807839E+04   -0.71114E-06   -0.14377E-06  5536   0.887E-04    0.123E-03
DAV:   7    -0.138037807921E+04   -0.81383E-06   -0.20517E-07  4544   0.453E-04    0.490E-04
DAV:   8    -0.138037808011E+04   -0.90207E-06   -0.88701E-08  4384   0.217E-04    0.332E-04
DAV:   9    -0.138037808101E+04   -0.89970E-06   -0.35554E-08  4128   0.164E-04    0.194E-04
DAV:  10    -0.138037808201E+04   -0.99995E-06   -0.52109E-08  4208   0.159E-04    0.126E-04
DAV:  11    -0.138037808257E+04   -0.55580E-06   -0.22541E-08  4208   0.114E-04    0.906E-05
DAV:  12    -0.138037808298E+04   -0.41327E-06   -0.14077E-08  3808   0.904E-05    0.611E-05
DAV:  13    -0.138037808327E+04   -0.28686E-06   -0.10702E-08  3648   0.866E-05    0.343E-05
DAV:  14    -0.138037808339E+04   -0.12174E-06   -0.29948E-09  3104   0.748E-05    0.284E-05
DAV:  15    -0.138037808346E+04   -0.70475E-07   -0.21665E-09  3072   0.624E-05    0.171E-05
DAV:  16    -0.138037808352E+04   -0.60856E-07   -0.17138E-09  3072   0.476E-05    0.148E-05
DAV:  17    -0.138037808354E+04   -0.20154E-07   -0.63929E-10  3104   0.316E-05    0.112E-05
DAV:  18    -0.138037808355E+04   -0.12675E-07   -0.28859E-10  3072   0.242E-05    0.617E-06
DAV:  19    -0.138037808356E+04   -0.75379E-08   -0.46262E-11  3072   0.157E-05
  68 F= -.13998956E+04 E0= -.13998956E+04  d E =-.143657E-03  mag=     0.0000
       N       E                     dE             d eps       ncg     rms          rms(c)
DAV:   1    -0.138037836684E+04   -0.28329E-03   -0.49171E-01  4800   0.547E-01    0.144E-01
DAV:   2    -0.138037842286E+04   -0.56021E-04   -0.40957E-03  5280   0.484E-02    0.881E-02
DAV:   3    -0.138037829742E+04    0.12544E-03   -0.66148E-04  5472   0.188E-02    0.271E-02
DAV:   4    -0.138037830288E+04   -0.54613E-05   -0.11605E-04  5600   0.654E-03    0.114E-02
DAV:   5    -0.138037830205E+04    0.83758E-06   -0.14339E-05  4992   0.248E-03    0.433E-03
DAV:   6    -0.138037830249E+04   -0.43897E-06   -0.15353E-06  5216   0.885E-04    0.171E-03
DAV:   7    -0.138037830304E+04   -0.55059E-06   -0.26129E-07  4672   0.514E-04    0.491E-04
DAV:   8    -0.138037830332E+04   -0.28739E-06   -0.79368E-08  4256   0.245E-04    0.325E-04
DAV:   9    -0.138037830361E+04   -0.28501E-06   -0.16775E-08  3808   0.134E-04    0.197E-04
DAV:  10    -0.138037830393E+04   -0.31973E-06   -0.10929E-08  3712   0.127E-04    0.106E-04
DAV:  11    -0.138037830421E+04   -0.28389E-06   -0.12053E-08  3840   0.124E-04    0.720E-05
DAV:  12    -0.138037830437E+04   -0.16039E-06   -0.55864E-09  3296   0.949E-05    0.463E-05
DAV:  13    -0.138037830447E+04   -0.97381E-07   -0.33543E-09  3072   0.712E-05    0.334E-05
DAV:  14    -0.138037830453E+04   -0.61744E-07   -0.27622E-09  3072   0.633E-05    0.220E-05
DAV:  15    -0.138037830456E+04   -0.27838E-07   -0.17505E-09  3072   0.510E-05    0.213E-05
DAV:  16    -0.138037830458E+04   -0.16080E-07   -0.86012E-10  3040   0.353E-05    0.167E-05
DAV:  17    -0.138037830459E+04   -0.10637E-07   -0.62795E-10  3008   0.352E-05    0.104E-05
DAV:  18    -0.138037830459E+04   -0.16007E-08   -0.33372E-10  3008   0.267E-05
  69 F= -.13998959E+04 E0= -.13998959E+04  d E =-.247806E-03  mag=     0.0000
       N       E                     dE             d eps       ncg     rms          rms(c)
DAV:   1    -0.138037830262E+04    0.19642E-05   -0.49539E-01  4928   0.551E-01    0.144E-01
DAV:   2    -0.138037828989E+04    0.12736E-04   -0.36082E-03  5312   0.460E-02    0.887E-02
DAV:   3    -0.138037817319E+04    0.11669E-03   -0.75672E-04  5440   0.192E-02    0.207E-02
DAV:   4    -0.138037818219E+04   -0.90020E-05   -0.11428E-04  5536   0.535E-03    0.104E-02
DAV:   5    -0.138037818201E+04    0.18624E-06   -0.10521E-05  5088   0.225E-03    0.460E-03
DAV:   6    -0.138037818251E+04   -0.49818E-06   -0.11645E-06  4864   0.927E-04    0.186E-03
DAV:   7    -0.138037818295E+04   -0.44869E-06   -0.26877E-07  4688   0.432E-04    0.457E-04
DAV:   8    -0.138037818329E+04   -0.33513E-06   -0.57018E-08  4592   0.219E-04    0.313E-04
DAV:   9    -0.138037818359E+04   -0.30072E-06   -0.14057E-08  3760   0.126E-04    0.187E-04
DAV:  10    -0.138037818402E+04   -0.42845E-06   -0.24558E-08  4160   0.109E-04    0.119E-04
DAV:  11    -0.138037818423E+04   -0.21084E-06   -0.63950E-09  3552   0.814E-05    0.723E-05
DAV:  12    -0.138037818444E+04   -0.20758E-06   -0.80393E-09  3712   0.740E-05    0.579E-05
DAV:  13    -0.138037818455E+04   -0.11419E-06   -0.31525E-09  3072   0.652E-05    0.357E-05
DAV:  14    -0.138037818466E+04   -0.10642E-06   -0.59314E-09  3312   0.695E-05    0.401E-05
DAV:  15    -0.138037818469E+04   -0.29730E-07   -0.15305E-09  3136   0.537E-05    0.287E-05
DAV:  16    -0.138037818472E+04   -0.28071E-07   -0.14862E-09  3040   0.482E-05    0.286E-05
DAV:  17    -0.138037818473E+04   -0.17986E-07   -0.83273E-10  3072   0.401E-05    0.297E-05
DAV:  18    -0.138037818474E+04   -0.66211E-08   -0.35145E-10  3024   0.271E-05
  70 F= -.13998955E+04 E0= -.13998955E+04  d E =0.374376E-03  mag=    -0.0000
