       N       E                     dE             d eps       ncg     rms          rms(c)
DAV:   1    -0.127905720282E+04   -0.12791E+04   -0.12681E+00  6336   0.966E-01    0.957E-01
DAV:   2    -0.128080325364E+04   -0.17461E+01   -0.11320E+00  6272   0.936E-01    0.402E-01
DAV:   3    -0.128081315410E+04   -0.99005E-02   -0.38775E-02  6784   0.221E-01    0.277E-01
DAV:   4    -0.128081318632E+04   -0.32214E-04   -0.20004E-03  5696   0.555E-02    0.224E-01
DAV:   5    -0.128081319446E+04   -0.81414E-05   -0.18259E-04  6784   0.176E-02    0.189E-01
DAV:   6    -0.128081321113E+04   -0.16673E-04   -0.21552E-05  6656   0.704E-03    0.163E-01
DAV:   7    -0.128081322236E+04   -0.11234E-04   -0.24202E-05  6784   0.840E-03    0.128E-01
DAV:   8    -0.128081322958E+04   -0.72166E-05   -0.14956E-05  6240   0.602E-03    0.107E-01
DAV:   9    -0.128081323519E+04   -0.56087E-05   -0.34530E-06  4032   0.315E-03    0.918E-02
DAV:  10    -0.128081324346E+04   -0.82728E-05   -0.28979E-05  6432   0.874E-03    0.508E-02
DAV:  11    -0.128081324901E+04   -0.55510E-05   -0.23876E-05  6784   0.785E-03    0.187E-02
DAV:  12    -0.128081325017E+04   -0.11557E-05   -0.19105E-06  3232   0.210E-03    0.138E-02
DAV:  13    -0.128081325062E+04   -0.45067E-06   -0.12357E-06  3136   0.190E-03
   1 F= -.12994266E+04 E0= -.12994266E+04  d E =-.985218E-14  mag=    -0.0000
