 vasp.5.4.4.18Apr17-6-g9f103f2a35 (build Oct 13 2017 11:24:24) complex          
  
 executed on             LinuxIFC date 2021.11.01  09:38:04
 running on   48 total cores
 distrk:  each k-point on   48 cores,    1 groups
 distr:  one band on NCORES_PER_BAND=   6 cores,    8 groups


--------------------------------------------------------------------------------------------------------


 INCAR:
 POTCAR:    PAW_PBE Zr_sv 04Jan2005               
 POTCAR:    PAW_PBE O 08Apr2002                   
 POTCAR:    PAW_PBE H 15Jun2001                   
 POTCAR:    PAW_PBE Zr_sv 04Jan2005               
   VRHFIN =Zr: 4s4p5s4d                                                         
   LEXCH  = PE                                                                  
   EATOM  =  1284.2219 eV,   94.3876 Ry                                         
                                                                                
   TITEL  = PAW_PBE Zr_sv 04Jan2005                                             
   LULTRA =        F    use ultrasoft PP ?                                      
   IUNSCR =        1    unscreen: 0-lin 1-nonlin 2-no                           
   RPACOR =    2.200    partial core radius                                     
   POMASS =   91.224; ZVAL   =   12.000    mass and valenz                      
   RCORE  =    2.500    outmost cutoff radius                                   
   RWIGS  =    3.070; RWIGS  =    1.625    wigner-seitz radius (au A)           
   ENMAX  =  229.898; ENMIN  =  172.424 eV                                      
   ICORE  =        3    local potential                                         
   LCOR   =        T    correct aug charges                                     
   LPAW   =        T    paw PP                                                  
   EAUG   =  461.257                                                            
   DEXC   =    0.000                                                            
   RMAX   =    2.561    core radius for proj-oper                               
   RAUG   =    1.300    factor for augmentation sphere                          
   RDEP   =    2.597    radius for radial grids                                 
   RDEPT  =    2.007    core radius for aug-charge                              
                                                                                
   Atomic configuration                                                         
   11 entries                                                                   
     n  l   j            E        occ.                                          
     1  0  0.50    -17820.0161   2.0000                                         
     2  0  0.50     -2467.0882   2.0000                                         
     2  1  1.50     -2199.6095   6.0000                                         
     3  0  0.50      -402.4863   2.0000                                         
     3  1  1.50      -315.3675   6.0000                                         
     3  2  2.50      -172.4472  10.0000                                         
     4  0  0.50       -52.4146   2.0000                                         
     5  0  0.50        -3.8421   1.0000                                         
     4  1  1.50       -30.5054   6.0000                                         
     4  2  2.50        -2.3341   3.0000                                         
     4  3  2.50        -1.3606   0.0000                                         
   Description                                                                  
     l       E           TYP  RCUT    TYP  RCUT                                 
     0    -52.4145962     23  2.200                                             
     0     -3.8421270     23  2.500                                             
     1    -30.5053914     23  2.200                                             
     1     20.4087390     23  2.200                                             
     2     -2.3340816     23  2.500                                             
     2     -0.6120942     23  2.500                                             
     3     -4.0817478     23  2.500                                             
  local pseudopotential read in
  partial core-charges read in
  partial kinetic energy density read in
  atomic valenz-charges read in
  non local Contribution for L=           0  read in
    real space projection operators read in
  non local Contribution for L=           0  read in
    real space projection operators read in
  non local Contribution for L=           1  read in
    real space projection operators read in
  non local Contribution for L=           1  read in
    real space projection operators read in
  non local Contribution for L=           2  read in
    real space projection operators read in
  non local Contribution for L=           2  read in
    real space projection operators read in
    PAW grid and wavefunctions read in
 
   number of l-projection  operators is LMAX  =           6
   number of lm-projection operators is LMMAX =          18
 
 POTCAR:    PAW_PBE O 08Apr2002                   
   VRHFIN =O: s2p4                                                              
   LEXCH  = PE                                                                  
   EATOM  =   432.3788 eV,   31.7789 Ry                                         
                                                                                
   TITEL  = PAW_PBE O 08Apr2002                                                 
   LULTRA =        F    use ultrasoft PP ?                                      
   IUNSCR =        1    unscreen: 0-lin 1-nonlin 2-no                           
   RPACOR =    1.200    partial core radius                                     
   POMASS =   16.000; ZVAL   =    6.000    mass and valenz                      
   RCORE  =    1.520    outmost cutoff radius                                   
   RWIGS  =    1.550; RWIGS  =    0.820    wigner-seitz radius (au A)           
   ENMAX  =  400.000; ENMIN  =  300.000 eV                                      
   ICORE  =        2    local potential                                         
   LCOR   =        T    correct aug charges                                     
   LPAW   =        T    paw PP                                                  
   EAUG   =  605.392                                                            
   DEXC   =    0.000                                                            
   RMAX   =    1.553    core radius for proj-oper                               
   RAUG   =    1.300    factor for augmentation sphere                          
   RDEP   =    1.550    radius for radial grids                                 
   RDEPT  =    1.329    core radius for aug-charge                              
                                                                                
   Atomic configuration                                                         
    4 entries                                                                   
     n  l   j            E        occ.                                          
     1  0  0.50      -514.6923   2.0000                                         
     2  0  0.50       -23.9615   2.0000                                         
     2  1  0.50        -9.0305   4.0000                                         
     3  2  1.50        -9.5241   0.0000                                         
   Description                                                                  
     l       E           TYP  RCUT    TYP  RCUT                                 
     0    -23.9615318     23  1.200                                             
     0     -9.5240782     23  1.200                                             
     1     -9.0304911     23  1.520                                             
     1      8.1634956     23  1.520                                             
     2     -9.5240782      7  1.500                                             
  local pseudopotential read in
  partial core-charges read in
  partial kinetic energy density read in
  kinetic energy density of atom read in
  atomic valenz-charges read in
  non local Contribution for L=           0  read in
    real space projection operators read in
  non local Contribution for L=           0  read in
    real space projection operators read in
  non local Contribution for L=           1  read in
    real space projection operators read in
  non local Contribution for L=           1  read in
    real space projection operators read in
    PAW grid and wavefunctions read in
 
   number of l-projection  operators is LMAX  =           4
   number of lm-projection operators is LMMAX =           8
 
 POTCAR:    PAW_PBE H 15Jun2001                   
   VRHFIN =H: ultrasoft test                                                    
   LEXCH  = PE                                                                  
   EATOM  =    12.4884 eV,    0.9179 Ry                                         
                                                                                
   TITEL  = PAW_PBE H 15Jun2001                                                 
   LULTRA =        F    use ultrasoft PP ?                                      
   IUNSCR =        0    unscreen: 0-lin 1-nonlin 2-no                           
   RPACOR =    0.000    partial core radius                                     
   POMASS =    1.000; ZVAL   =    1.000    mass and valenz                      
   RCORE  =    1.100    outmost cutoff radius                                   
   RWIGS  =    0.700; RWIGS  =    0.370    wigner-seitz radius (au A)           
   ENMAX  =  250.000; ENMIN  =  200.000 eV                                      
   RCLOC  =    0.701    cutoff for local pot                                    
   LCOR   =        T    correct aug charges                                     
   LPAW   =        T    paw PP                                                  
   EAUG   =  400.000                                                            
   RMAX   =    1.123    core radius for proj-oper                               
   RAUG   =    1.200    factor for augmentation sphere                          
   RDEP   =    1.112    radius for radial grids                                 
   RDEPT  =    0.926    core radius for aug-charge                              
                                                                                
   Atomic configuration                                                         
    2 entries                                                                   
     n  l   j            E        occ.                                          
     1  0  0.50        -6.4927   1.0000                                         
     2  1  0.50        -3.4015   0.0000                                         
   Description                                                                  
     l       E           TYP  RCUT    TYP  RCUT                                 
     0     -6.4927494     23  1.100                                             
     0      6.8029130     23  1.100                                             
     1     -4.0817478     23  1.100                                             
  local pseudopotential read in
  atomic valenz-charges read in
  non local Contribution for L=           0  read in
    real space projection operators read in
  non local Contribution for L=           0  read in
    real space projection operators read in
  non local Contribution for L=           1  read in
    real space projection operators read in
    PAW grid and wavefunctions read in
 
   number of l-projection  operators is LMAX  =           3
   number of lm-projection operators is LMMAX =           5
 
 Optimization of the real space projectors (new method)

 maximal supplied QI-value         = 15.12
 optimisation between [QCUT,QGAM] = [ 11.34, 22.83] = [ 36.00,145.93] Ry 
 Optimized for a Real-space Cutoff    1.47 Angstroem

   l    n(q)    QCUT    max X(q) W(low)/X(q) W(high)/X(q)  e(spline) 
   0     10    11.338    12.107    0.38E-04    0.13E-04    0.27E-07
   0     10    11.338     9.948    0.69E-04    0.30E-04    0.38E-07
   1     10    11.338     3.563    0.26E-04    0.18E-04    0.40E-07
   1     10    11.338     4.524    0.25E-03    0.39E-04    0.44E-06
   2      9    11.338    87.261    0.26E-03    0.91E-05    0.26E-06
   2      9    11.338    70.950    0.25E-03    0.91E-05    0.25E-06
 Optimization of the real space projectors (new method)

 maximal supplied QI-value         = 24.76
 optimisation between [QCUT,QGAM] = [ 11.39, 22.77] = [ 36.31,145.25] Ry 
 Optimized for a Real-space Cutoff    1.00 Angstroem

   l    n(q)    QCUT    max X(q) W(low)/X(q) W(high)/X(q)  e(spline) 
   0      7    11.387    20.381    0.39E-03    0.13E-02    0.15E-06
   0      7    11.387    15.268    0.42E-03    0.14E-02    0.17E-06
   1      6    11.387     5.964    0.41E-03    0.11E-02    0.17E-06
   1      6    11.387     5.382    0.39E-03    0.87E-03    0.15E-06
 Optimization of the real space projectors (new method)

 maximal supplied QI-value         = 34.20
 optimisation between [QCUT,QGAM] = [ 11.29, 22.57] = [ 35.68,142.71] Ry 
 Optimized for a Real-space Cutoff    1.16 Angstroem

   l    n(q)    QCUT    max X(q) W(low)/X(q) W(high)/X(q)  e(spline) 
   0      8    11.287    19.460    0.40E-03    0.73E-03    0.16E-06
   0      8    11.287    12.209    0.38E-03    0.70E-03    0.15E-06
   1      7    11.287     4.655    0.22E-03    0.25E-04    0.22E-06
  PAW_PBE Zr_sv 04Jan2005               :
 energy of atom  1       EATOM=-1284.2219
 kinetic energy error for atom=    0.0049 (will be added to EATOM!!)
  PAW_PBE O 08Apr2002                   :
 energy of atom  2       EATOM= -432.3788
 kinetic energy error for atom=    0.0224 (will be added to EATOM!!)
  PAW_PBE H 15Jun2001                   :
 energy of atom  3       EATOM=  -12.4884
 kinetic energy error for atom=    0.0020 (will be added to EATOM!!)
 
 
 POSCAR: CONTCAR\(2)                             
  positions in direct lattice
  velocities in cartesian coordinates
  No initial velocities read in
 exchange correlation table for  LEXCH =        8
   RHO(1)=    0.500       N(1)  =     2000
   RHO(2)=  100.500       N(2)  =     4000
 


--------------------------------------------------------------------------------------------------------


 ion  position               nearest neighbor table
   1  0.088  0.321  0.038-  78 2.10  62 2.10  50 2.18  74 2.19  61 2.26  54 2.30  16 3.37   6 3.50
                            12 3.52  13 3.65
   2  0.338  0.821  0.038-  79 2.10  63 2.10  51 2.18  75 2.19  58 2.26  55 2.30  13 3.37   7 3.50
                             9 3.52  14 3.65
   3  0.588  0.321  0.038-  80 2.10  64 2.10  52 2.18  76 2.19  59 2.26  56 2.30  14 3.37   8 3.50
                            10 3.52  15 3.65
   4  0.838  0.821  0.038-  81 2.10  65 2.10  53 2.18  77 2.19  60 2.26  57 2.30  15 3.37   5 3.50
                            11 3.52  16 3.65
   5  0.070  0.834  0.049-  82 2.07  66 2.10  65 2.18  58 2.19  57 2.22  70 2.30  12 3.37  17 3.46
                             4 3.50  16 3.52   9 3.65
   6  0.320  0.334  0.049-  83 2.06  67 2.10  62 2.18  59 2.19  54 2.22  71 2.30   9 3.37  18 3.48
                             1 3.50  13 3.52  10 3.65
   7  0.570  0.834  0.049-  84 2.06  68 2.10  63 2.18  60 2.19  55 2.22  72 2.30  10 3.37  19 3.48
                             2 3.50  14 3.52  11 3.65
   8  0.820  0.334  0.049-  85 2.08  69 2.10  64 2.18  61 2.19  56 2.22  73 2.30  11 3.37   3 3.50
                            20 3.51  15 3.52  12 3.65
   9  0.238  0.068  0.057-  62 2.10  86 2.16  67 2.18  70 2.19  75 2.22  58 2.30   6 3.37  17 3.48
                            14 3.50  22 3.52   2 3.52   5 3.65
  10  0.488  0.568  0.057-  63 2.10  87 2.17  68 2.18  71 2.19  76 2.22  59 2.30   7 3.37  18 3.48
                            15 3.50   3 3.52  23 3.52   6 3.65
  11  0.738  0.068  0.057-  64 2.10  69 2.18  88 2.18  72 2.19  77 2.22  60 2.30   8 3.37  19 3.47
                            16 3.50   4 3.52  24 3.53   7 3.65
  12  0.988  0.568  0.057-  65 2.10  66 2.18  89 2.18  73 2.19  74 2.22  61 2.30   5 3.37  13 3.50
                             1 3.52  20 3.52  21 3.53   8 3.65
  13  0.220  0.581  0.068-  51 2.10  66 2.10  79 2.18  54 2.19  71 2.26  90 2.26  74 2.30   2 3.37
                            21 3.49  26 3.50  12 3.50  18 3.50   6 3.52   1 3.65
  14  0.470  0.081  0.068-  52 2.10  67 2.10  80 2.18  55 2.19  72 2.26  91 2.27  75 2.30   3 3.37
                            27 3.48  22 3.49   9 3.50  19 3.52   7 3.52   2 3.65
  15  0.720  0.581  0.068-  53 2.10  68 2.10  81 2.18  56 2.19  73 2.26  92 2.27  76 2.30   4 3.37
                            23 3.49  28 3.50  10 3.50   8 3.52  20 3.54   3 3.65
  16  0.970  0.081  0.068-  50 2.10  69 2.10  78 2.18  57 2.19  70 2.26  93 2.26  77 2.30   1 3.37
                            17 3.50  11 3.50  24 3.50  25 3.50   5 3.52   4 3.65
  17  0.106  0.982  0.171-  94 2.09 110 2.13  82 2.16  70 2.19 106 2.20  93 2.23  86 2.31  32 3.40
                             5 3.46   9 3.48  16 3.50  22 3.52  25 3.54  29 3.67
  18  0.356  0.484  0.171-  95 2.10 111 2.13  83 2.16  71 2.19 107 2.19  90 2.23  87 2.29  29 3.37
                             6 3.48  10 3.48  13 3.50  23 3.52  26 3.54  30 3.65
  19  0.608  0.984  0.171-  96 2.09 112 2.14  84 2.18  72 2.19 108 2.20  91 2.23  88 2.28  30 3.38
                            11 3.47   7 3.48  24 3.49  14 3.52  27 3.52  31 3.69
  20  0.856  0.483  0.173-  97 2.10 113 2.11  85 2.19 109 2.19  92 2.23  73 2.24  89 2.32  31 3.33
                            28 3.49   8 3.51  12 3.52  21 3.53  15 3.54  32 3.63
  21  0.090  0.495  0.183- 114 2.09  98 2.11  97 2.17  90 2.18  74 2.24  89 2.27 102 2.29  25 3.37
                            13 3.49  32 3.51  20 3.53  12 3.53  26 3.62  33 3.64
  22  0.339  0.995  0.182- 115 2.10  99 2.11  94 2.17  91 2.19  75 2.23 103 2.26  86 2.27  26 3.38
                            14 3.49  29 3.51   9 3.52  17 3.52  34 3.61  27 3.62
  23  0.589  0.493  0.182- 100 2.08 116 2.13  95 2.17  92 2.18  76 2.23  87 2.29 104 2.30  27 3.36
                            15 3.49  35 3.50  18 3.52  10 3.52  30 3.56  28 3.69
  24  0.839  0.995  0.183- 117 2.10 101 2.10  96 2.18  93 2.18  77 2.25  88 2.27 105 2.28  28 3.36
                            19 3.49  16 3.50  11 3.53  31 3.53  36 3.60  25 3.65
  25  0.005  0.230  0.191-  78 2.10  97 2.10 121 2.17  98 2.19 105 2.21 106 2.29  93 2.30  21 3.37
                            37 3.45  16 3.50  17 3.54  29 3.55  24 3.65  36 3.66
  26  0.253  0.730  0.191-  94 2.10  79 2.10 102 2.18  99 2.20 118 2.20 107 2.29  90 2.29  22 3.38
                            38 3.46  13 3.50  18 3.54  30 3.54  21 3.62  33 3.65
  27  0.504  0.229  0.191-  80 2.09  95 2.11 119 2.18 100 2.19 103 2.19 108 2.29  91 2.29  23 3.36
                            39 3.47  14 3.48  19 3.52  31 3.58  22 3.62  34 3.65
  28  0.758  0.729  0.191-  81 2.08  96 2.12 101 2.16 120 2.22 109 2.23 104 2.24  92 2.30  24 3.36
                            32 3.48  35 3.49  20 3.49  15 3.50  40 3.59  23 3.69
  29  0.240  0.242  0.201-  98 2.10  83 2.10 122 2.19 103 2.21 111 2.22  86 2.23 106 2.29  18 3.37
                            37 3.41  42 3.50  22 3.51  25 3.55  34 3.63  17 3.67
  30  0.488  0.743  0.199-  99 2.08  84 2.09 112 2.20 123 2.20  87 2.22 104 2.25 107 2.29  19 3.38
                            38 3.45  35 3.48  43 3.50  26 3.54  23 3.56  18 3.65
  31  0.741  0.245  0.203-  85 2.11 100 2.12 113 2.12 105 2.22 124 2.25  88 2.28 108 2.31  20 3.33
                            39 3.45  44 3.53  24 3.53  27 3.58  36 3.64  19 3.69
  32  0.989  0.740  0.203- 101 2.11  82 2.14 110 2.19 102 2.21 125 2.22  89 2.23 109 2.26  17 3.40
                            41 3.46  28 3.48  21 3.51  40 3.53  33 3.63  20 3.63
  33  0.123  0.641  0.314- 142 2.02 126 2.17 138 2.17 114 2.21 125 2.23 118 2.38 102 2.42  45 3.23
                            41 3.47  38 3.54  32 3.63  21 3.64  26 3.65  46 3.71
  34  0.372  0.140  0.313- 143 2.02 127 2.14 139 2.19 115 2.20 122 2.23 119 2.36 103 2.43  46 3.23
                            42 3.49  39 3.53  22 3.61  29 3.63  27 3.65  47 3.66
  35  0.622  0.649  0.304- 140 2.14 123 2.17 116 2.19 104 2.19 128 2.22 120 2.22 144 2.25  49 3.18
                            43 3.41  47 3.43  30 3.48  28 3.49  23 3.50  40 3.60  48 3.69
  36  0.875  0.137  0.314- 145 2.03 129 2.12 141 2.13 117 2.22 124 2.30 105 2.38 121 2.45  48 3.22
                            44 3.40  37 3.55  24 3.60  31 3.64  25 3.66  45 3.77
  37  0.110  0.161  0.312- 130 2.09 121 2.14 106 2.16 129 2.16 122 2.16 134 2.17  29 3.41  25 3.45
                            41 3.45  45 3.51  36 3.55  42 3.58
  38  0.358  0.660  0.313- 131 2.10 126 2.15 118 2.16 107 2.16 135 2.16 123 2.17  42 3.44  30 3.45
                            26 3.46  46 3.53  33 3.54  43 3.59
  39  0.606  0.158  0.314- 136 2.10 132 2.11 127 2.15 108 2.16 124 2.18 119 2.21  43 3.42  31 3.45
                            47 3.46  27 3.47  34 3.53  44 3.67
  40  0.859  0.664  0.321- 146 2.12 133 2.14 137 2.20 125 2.20 120 2.21 128 2.32 109 2.35  49 3.35
                            48 3.45  32 3.53  44 3.55  41 3.58  28 3.59  35 3.60
  41  0.028  0.889  0.324- 110 2.05 137 2.14 138 2.15 129 2.16 130 2.20 125 2.30  37 3.45  32 3.46
                            33 3.47  46 3.50  40 3.58
  42  0.276  0.388  0.326- 111 2.06 139 2.14 126 2.14 134 2.25 131 2.25 122 2.29  38 3.44  34 3.49
                            47 3.50  29 3.50  37 3.58
  43  0.524  0.888  0.325- 112 2.06 127 2.14 140 2.14 132 2.17 135 2.27 123 2.30  35 3.41  39 3.42
                            30 3.50  48 3.56  38 3.59
  44  0.785  0.380  0.332- 141 2.10 147 2.11 133 2.15 113 2.20 124 2.23 128 2.25 136 2.65  49 3.17
                            36 3.40  45 3.42  31 3.53  40 3.55  39 3.67
  45  0.012  0.407  0.336- 142 2.02 114 2.07 133 2.16 141 2.24 134 2.30 121 2.30  33 3.23  44 3.42
                            37 3.51  36 3.77
  46  0.259  0.907  0.336- 143 2.03 115 2.07 130 2.14 138 2.26 118 2.30 135 2.31  34 3.23  41 3.50
                            38 3.53  33 3.71
  47  0.508  0.400  0.334- 116 2.07 136 2.13 131 2.17 119 2.22 139 2.23 144 2.26  35 3.43  39 3.46
                            42 3.50  34 3.66
  48  0.760  0.906  0.337- 145 2.01 117 2.06 132 2.19 137 2.22 120 2.33 140 2.36  36 3.22  40 3.45
                            43 3.56  35 3.69
  49  0.708  0.555  0.413- 147 1.92 146 1.98 144 2.10 128 2.14  44 3.17  35 3.18  40 3.35
  50  0.024  0.173  0.000-  16 2.10   1 2.18
  51  0.274  0.673  0.000-  13 2.10   2 2.18
  52  0.524  0.173  0.000-  14 2.10   3 2.18
  53  0.774  0.673  0.000-  15 2.10   4 2.18
  54  0.215  0.432  0.016-  13 2.19   6 2.22   1 2.30
  55  0.465  0.932  0.016-  14 2.19   7 2.22   2 2.30
  56  0.715  0.432  0.016-  15 2.19   8 2.22   3 2.30
  57  0.965  0.932  0.016-  16 2.19   5 2.22   4 2.30
  58  0.207  0.891  0.025-   5 2.19   2 2.26   9 2.30
  59  0.457  0.391  0.025-   6 2.19   3 2.26  10 2.30
  60  0.707  0.891  0.025-   7 2.19   4 2.26  11 2.30
  61  0.957  0.391  0.025-   8 2.19   1 2.26  12 2.30
  62  0.197  0.226  0.044-   9 2.10   1 2.10   6 2.18
  63  0.447  0.726  0.044-  10 2.10   2 2.10   7 2.18
  64  0.697  0.226  0.044-  11 2.10   3 2.10   8 2.18
  65  0.947  0.726  0.044-  12 2.10   4 2.10   5 2.18
  66  0.111  0.675  0.062-   5 2.10  13 2.10  12 2.18
  67  0.361  0.175  0.062-   6 2.10  14 2.10   9 2.18
  68  0.611  0.675  0.062-   7 2.10  15 2.10  10 2.18
  69  0.861  0.175  0.062-   8 2.10  16 2.10  11 2.18
  70  0.101  0.010  0.081-  17 2.19   9 2.19  16 2.26   5 2.30
  71  0.351  0.510  0.081-  18 2.19  10 2.19  13 2.26   6 2.30
  72  0.601  0.010  0.081-  11 2.19  19 2.19  14 2.26   7 2.30
  73  0.851  0.510  0.081-  12 2.19  20 2.24  15 2.26   8 2.30
  74  0.093  0.470  0.090-   1 2.19  12 2.22  21 2.24  13 2.30
  75  0.343  0.970  0.090-   2 2.19   9 2.22  22 2.23  14 2.30
  76  0.593  0.470  0.090-   3 2.19  10 2.22  23 2.23  15 2.30
  77  0.843  0.970  0.090-   4 2.19  11 2.22  24 2.25  16 2.30
  78  0.034  0.229  0.106-   1 2.10  25 2.10  16 2.18
  79  0.284  0.729  0.106-   2 2.10  26 2.10  13 2.18
  80  0.534  0.229  0.106-  27 2.09   3 2.10  14 2.18
  81  0.784  0.729  0.106-  28 2.08   4 2.10  15 2.18
  82  0.045  0.833  0.134-   5 2.07  32 2.14  17 2.16
  83  0.297  0.334  0.133-   6 2.06  29 2.10  18 2.16
  84  0.546  0.834  0.133-   7 2.06  30 2.09  19 2.18
  85  0.796  0.333  0.134-   8 2.08  31 2.11  20 2.19
  86  0.232  0.093  0.146-   9 2.16  29 2.23  22 2.27  17 2.31
  87  0.482  0.593  0.147-  10 2.17  30 2.22  23 2.29  18 2.29
  88  0.732  0.094  0.147-  11 2.18  24 2.27  19 2.28  31 2.28
  89  0.982  0.593  0.147-  12 2.18  32 2.23  21 2.27  20 2.32
  90  0.226  0.552  0.160-  21 2.18  18 2.23  13 2.26  26 2.29
  91  0.476  0.051  0.161-  22 2.19  19 2.23  14 2.27  27 2.29
  92  0.725  0.552  0.161-  23 2.18  20 2.23  15 2.27  28 2.30
  93  0.975  0.052  0.161-  24 2.18  17 2.23  16 2.26  25 2.30
  94  0.215  0.890  0.181-  17 2.09  26 2.10  22 2.17
  95  0.465  0.389  0.181-  18 2.10  27 2.11  23 2.17
  96  0.715  0.889  0.181-  19 2.09  28 2.12  24 2.18
  97  0.966  0.390  0.182-  20 2.10  25 2.10  21 2.17
  98  0.130  0.335  0.192-  29 2.10  21 2.11  25 2.19
  99  0.379  0.835  0.193-  30 2.08  22 2.11  26 2.20
 100  0.629  0.335  0.194-  23 2.08  31 2.12  27 2.19
 101  0.880  0.836  0.194-  24 2.10  32 2.11  28 2.16
 102  0.118  0.671  0.215-  26 2.18  32 2.21  21 2.29  33 2.42
 103  0.368  0.170  0.213-  27 2.19  29 2.21  22 2.26  34 2.43
 104  0.618  0.671  0.213-  35 2.19  28 2.24  30 2.25  23 2.30
 105  0.868  0.170  0.216-  25 2.21  31 2.22  24 2.28  36 2.38
 106  0.116  0.130  0.224-  37 2.16  17 2.20  29 2.29  25 2.29
 107  0.364  0.631  0.224-  38 2.16  18 2.19  26 2.29  30 2.29
 108  0.615  0.131  0.225-  39 2.16  19 2.20  27 2.29  31 2.31
 109  0.864  0.632  0.225-  20 2.19  28 2.23  32 2.26  40 2.35
 110  0.047  0.893  0.240-  41 2.05  17 2.13  32 2.19
 111  0.298  0.396  0.241-  42 2.06  18 2.13  29 2.22
 112  0.547  0.893  0.240-  43 2.06  19 2.14  30 2.20
 113  0.797  0.393  0.241-  20 2.11  31 2.12  44 2.20
 114  0.071  0.492  0.269-  45 2.07  21 2.09  33 2.21
 115  0.316  0.992  0.268-  46 2.07  22 2.10  34 2.20
 116  0.561  0.494  0.269-  47 2.07  23 2.13  35 2.19
 117  0.810  0.993  0.268-  48 2.06  24 2.10  36 2.22
 118  0.252  0.750  0.283-  38 2.16  26 2.20  46 2.30  33 2.38
 119  0.498  0.250  0.281-  27 2.18  39 2.21  47 2.22  34 2.36
 120  0.749  0.746  0.283-  40 2.21  28 2.22  35 2.22  48 2.33
 121  0.006  0.251  0.281-  37 2.14  25 2.17  45 2.30  36 2.45
 122  0.246  0.214  0.291-  37 2.16  29 2.19  34 2.23  42 2.29
 123  0.494  0.713  0.290-  38 2.17  35 2.17  30 2.20  43 2.30
 124  0.744  0.215  0.296-  39 2.18  44 2.23  31 2.25  36 2.30
 125  0.996  0.711  0.294-  40 2.20  32 2.22  33 2.23  41 2.30
 126  0.240  0.554  0.329-  42 2.14  38 2.15  33 2.17
 127  0.486  0.052  0.327-  34 2.14  43 2.14  39 2.15
 128  0.730  0.545  0.325-  49 2.14  35 2.22  44 2.25  40 2.32
 129  0.990  0.056  0.328-  36 2.12  41 2.16  37 2.16
 130  0.148  0.004  0.330-  37 2.09  46 2.14  41 2.20
 131  0.399  0.505  0.335-  38 2.10  47 2.17  42 2.25
 132  0.643  0.000  0.334-  39 2.11  43 2.17  48 2.19
 133  0.898  0.500  0.328-  40 2.14  44 2.15  45 2.16
 134  0.139  0.321  0.352-  37 2.17  42 2.25  45 2.30
 135  0.386  0.819  0.352-  38 2.16  43 2.27  46 2.31
 136  0.618  0.310  0.355-  39 2.10  47 2.13  44 2.65
 137  0.891  0.838  0.341-  41 2.14  40 2.20  48 2.22
 138  0.133  0.799  0.356-  41 2.15  33 2.17  46 2.26
 139  0.382  0.299  0.356-  42 2.14  34 2.19  47 2.23
 140  0.628  0.794  0.355-  43 2.14  35 2.14  48 2.36
 141  0.892  0.292  0.355-  44 2.10  36 2.13  45 2.24
 142  0.067  0.543  0.375-  33 2.02  45 2.02
 143  0.317  0.043  0.375-  34 2.02  46 2.03
 144  0.580  0.546  0.379-  49 2.10  35 2.25  47 2.26
 145  0.816  0.041  0.375-  48 2.01  36 2.03
 146  0.803  0.676  0.402-  49 1.98  40 2.12
 147  0.762  0.419  0.416-  49 1.92  44 2.11
 148  0.676  0.661  0.503- 149 0.76
 149  0.717  0.691  0.488- 148 0.76
 
  Warning from LATTYP: Monoclinic adjustement (A1->A3, A2->A1, A3->A2)!
  Warning from LATTYP: Got some problem with cell dimensions!
  Tried to take original basis but could not verify dimensions!
  LATTYP: Found a simple monoclinic cell.
 ALAT       =    18.5584556648
 B/A-ratio  =     1.2917238965
 C/A-ratio  =     1.7011970181
 COS(beta)  =    -0.9496615564
  
  Lattice vectors:
  
 A1 = ( -14.0305058395, -12.1474763861,   0.0000000000)
 A2 = (   0.0000000000,   0.0000000000, -23.9724006653)
 A3 = (  29.1411063110,  12.1474763861,   0.0000000000)


Analysis of symmetry for initial positions (statically):
=====================================================================
 Subroutine PRICEL returns:
 Original cell was already a primitive cell.
 

 Routine SETGRP: Setting up the symmetry group for a 
 simple monoclinic supercell.


 Subroutine GETGRP returns: Found  1 space group operations
 (whereof  1 operations were pure point group operations)
 out of a pool of  4 trial point group operations.


The static configuration has the point symmetry C_1 .


Analysis of symmetry for dynamics (positions and initial velocities):
=====================================================================
 Subroutine PRICEL returns:
 Original cell was already a primitive cell.
 

 Routine SETGRP: Setting up the symmetry group for a 
 simple monoclinic supercell.


 Subroutine GETGRP returns: Found  1 space group operations
 (whereof  1 operations were pure point group operations)
 out of a pool of  4 trial point group operations.


The dynamic configuration has the point symmetry C_1 .


Analysis of constrained symmetry for selective dynamics:
=====================================================================
 Subroutine PRICEL returns:
 Original cell was already a primitive cell.
 

 Routine SETGRP: Setting up the symmetry group for a 
 simple monoclinic supercell.


 Subroutine GETGRP returns: Found  1 space group operations
 (whereof  1 operations were pure point group operations)
 out of a pool of  4 trial point group operations.


The constrained configuration has the point symmetry C_1 .


Analysis of structural, dynamic, and magnetic symmetry:
=====================================================================
 Subroutine PRICEL returns:
 Original cell was already a primitive cell.
 

 Routine SETGRP: Setting up the symmetry group for a 
 simple monoclinic supercell.


 Subroutine GETGRP returns: Found  1 space group operations
 (whereof  1 operations were pure point group operations)
 out of a pool of  4 trial point group operations.


The magnetic configuration has the point symmetry C_1 .


 Subroutine INISYM returns: Found  1 space group operations
 (whereof  1 operations are pure point group operations),
 and found     1 'primitive' translations

 
 
 KPOINTS: Monkhorst Pack                          

Automatic generation of k-mesh.
Space group operators:
 irot       det(A)        alpha          n_x          n_y          n_z        tau_x        tau_y        tau_z
    1     1.000000     0.000001     1.000000     0.000000     0.000000     0.000000     0.000000     0.000000
 
 Subroutine IBZKPT returns following result:
 ===========================================
 
 Found      2 irreducible k-points:
 
 Following reciprocal coordinates:
            Coordinates               Weight
  0.250000  0.250000  0.000000      2.000000
 -0.250000  0.250000  0.000000      2.000000
 
 Following cartesian coordinates:
            Coordinates               Weight
  0.016545  0.022051  0.000000      2.000000
 -0.016545  0.019109  0.000000      2.000000
 


--------------------------------------------------------------------------------------------------------




 Dimension of arrays:
   k-points           NKPTS =      2   k-points in BZ     NKDIM =      2   number of bands    NBANDS=    640
   number of dos      NEDOS =    301   number of ions     NIONS =    149
   non local maximal  LDIM  =      6   non local SUM 2l+1 LMDIM =     18
   total plane-waves  NPLWV = 823200
   max r-space proj   IRMAX =   2561   max aug-charges    IRDMAX=   7978
   dimension x,y,z NGX =    84 NGY =   70 NGZ =  140
   dimension x,y,z NGXF=   168 NGYF=  140 NGZF=  280
   support grid    NGXF=   168 NGYF=  140 NGZF=  280
   ions per type =              49  98   2
   NGX,Y,Z   is equivalent  to a cutoff of   9.24,  9.54,  9.71 a.u.
   NGXF,Y,Z  is equivalent  to a cutoff of  18.48, 19.08, 19.42 a.u.

 SYSTEM =  mZrO2_n111                              
 POSCAR =  CONTCAR\(2)                             

 Startparameter for this run:
   NWRITE =      2    write-flag & timer
   PREC   = normal    normal or accurate (medium, high low for compatibility)
   ISTART =      1    job   : 0-new  1-cont  2-samecut
   ICHARG =      1    charge: 1-file 2-atom 10-const
   ISPIN  =      2    spin polarized calculation?
   LNONCOLLINEAR =      F non collinear calculations
   LSORBIT =      F    spin-orbit coupling
   INIWAV =      1    electr: 0-lowe 1-rand  2-diag
   LASPH  =      F    aspherical Exc in radial PAW
   METAGGA=      F    non-selfconsistent MetaGGA calc.

 Electronic Relaxation 1
   ENCUT  =  500.0 eV  36.75 Ry    6.06 a.u.  27.55 22.24 43.71*2*pi/ulx,y,z
   ENINI  =  500.0     initial cutoff
   ENAUG  =  605.4 eV  augmentation charge cutoff
   NELM   =    300;   NELMIN=  2; NELMDL=  0     # of ELM steps 
   EDIFF  = 0.1E-05   stopping-criterion for ELM
   LREAL  =      T    real-space projection
   NLSPLINE    = F    spline interpolate recip. space projectors
   LCOMPAT=      F    compatible to vasp.4.4
   GGA_COMPAT  = T    GGA compatible to vasp.4.4-vasp.4.6
   LMAXPAW     = -100 max onsite density
   LMAXMIX     =    2 max onsite mixed and CHGCAR
   VOSKOWN=      0    Vosko Wilk Nusair interpolation
   ROPT   =   -0.00050  -0.00050  -0.00050
 Ionic relaxation
   EDIFFG = -.2E-01   stopping-criterion for IOM
   NSW    =      0    number of steps for IOM
   NBLOCK =      1;   KBLOCK =      1    inner block; outer block 
   IBRION =     -1    ionic relax: 0-MD 1-quasi-New 2-CG
   NFREE  =      1    steps in history (QN), initial steepest desc. (CG)
   ISIF   =      2    stress and relaxation
   IWAVPR =     10    prediction:  0-non 1-charg 2-wave 3-comb
   ISYM   =      2    0-nonsym 1-usesym 2-fastsym
   LCORR  =      T    Harris-Foulkes like correction to forces

   POTIM  = 0.5000    time-step for ionic-motion
   TEIN   =    0.0    initial temperature
   TEBEG  =    0.0;   TEEND  =   0.0 temperature during run
   SMASS  =  -3.00    Nose mass-parameter (am)
   estimated Nose-frequenzy (Omega)   =  0.10E-29 period in steps =****** mass=  -0.522E-26a.u.
   SCALEE = 1.0000    scale energy and forces
   NPACO  =    256;   APACO  = 16.0  distance and # of slots for P.C.
   PSTRESS=    0.0 pullay stress

  Mass of Ions in am
   POMASS =  91.22 16.00  1.00
  Ionic Valenz
   ZVAL   =  12.00  6.00  1.00
  Atomic Wigner-Seitz radii
   RWIGS  =  -1.00 -1.00 -1.00
  virtual crystal weights 
   VCA    =   1.00  1.00  1.00
   NELECT =    1178.0000    total number of electrons
   NUPDOWN=      -1.0000    fix difference up-down

 DOS related values:
   EMIN   =  10.00;   EMAX   =-10.00  energy-range for DOS
   EFERMI =   0.00
   ISMEAR =     0;   SIGMA  =   0.05  broadening in eV -4-tet -1-fermi 0-gaus

 Electronic relaxation 2 (details)
   IALGO  =     38    algorithm
   LDIAG  =      T    sub-space diagonalisation (order eigenvalues)
   LSUBROT=      F    optimize rotation matrix (better conditioning)
   TURBO    =      0    0=normal 1=particle mesh
   IRESTART =      0    0=no restart 2=restart with 2 vectors
   NREBOOT  =      0    no. of reboots
   NMIN     =      0    reboot dimension
   EREF     =   0.00    reference energy to select bands
   IMIX   =      4    mixing-type and parameters
     AMIX     =   0.40;   BMIX     =  1.00
     AMIX_MAG =   1.60;   BMIX_MAG =  1.00
     AMIN     =   0.10
     WC   =   100.;   INIMIX=   1;  MIXPRE=   1;  MAXMIX= -45

 Intra band minimization:
   WEIMIN = 0.0000     energy-eigenvalue tresh-hold
   EBREAK =  0.39E-09  absolut break condition
   DEPER  =   0.30     relativ break condition  

   TIME   =   0.40     timestep for ELM

  volume/ion in A,a.u.               =      29.53       199.29
  Fermi-wavevector in a.u.,A,eV,Ry     =   1.055108  1.993865 15.146719  1.113252
  Thomas-Fermi vector in A             =   2.190293
 
 Write flags
   LWAVE        =      F    write WAVECAR
   LDOWNSAMPLE  =      F    k-point downsampling of WAVECAR
   LCHARG       =      F    write CHGCAR
   LVTOT        =      F    write LOCPOT, total local potential
   LVHAR        =      F    write LOCPOT, Hartree potential only
   LELF         =      F    write electronic localiz. function (ELF)
   LORBIT       =      0    0 simple, 1 ext, 2 COOP (PROOUT), +10 PAW based schemes


 Dipole corrections
   LMONO  =      F    monopole corrections only (constant potential shift)
   LDIPOL =      F    correct potential (dipole corrections)
   IDIPOL =      3    1-x, 2-y, 3-z, 4-all directions 
   EPSILON=  1.0000000 bulk dielectric constant

 LDA+U is selected, type is set to LDAUTYPE =  2
   angular momentum for each species LDAUL =     2   -1   -1
   U (eV)           for each species LDAUU =   4.0  0.0  0.0
   J (eV)           for each species LDAUJ =   0.0  0.0  0.0
 Exchange correlation treatment:
   GGA     =    --    GGA type
   LEXCH   =     8    internal setting for exchange type
   VOSKOWN=      0    Vosko Wilk Nusair interpolation
   LHFCALC =     F    Hartree Fock is set to
   LHFONE  =     F    Hartree Fock one center treatment
   AEXX    =    0.0000 exact exchange contribution

 Linear response parameters
   LEPSILON=     F    determine dielectric tensor
   LRPA    =     F    only Hartree local field effects (RPA)
   LNABLA  =     F    use nabla operator in PAW spheres
   LVEL    =     F    velocity operator in full k-point grid
   LINTERFAST=   F  fast interpolation
   KINTER  =     0    interpolate to denser k-point grid
   CSHIFT  =0.1000    complex shift for real part using Kramers Kronig
   OMEGAMAX=  -1.0    maximum frequency
   DEG_THRESHOLD= 0.2000000E-02 threshold for treating states as degnerate
   RTIME   =   -0.100 relaxation time in fs
  (WPLASMAI=    0.000 imaginary part of plasma frequency in eV, 0.658/RTIME)
   DFIELD  = 0.0000000 0.0000000 0.0000000 field for delta impulse in time
 
 Orbital magnetization related:
   ORBITALMAG=     F  switch on orbital magnetization
   LCHIMAG   =     F  perturbation theory with respect to B field
   DQ        =  0.001000  dq finite difference perturbation B field
   LLRAUG    =     F  two centre corrections for induced B field



--------------------------------------------------------------------------------------------------------


 Static calculation
 charge density and potential will be updated during run
 spin polarized calculation
 Variant of blocked Davidson
 Davidson routine will perform the subspace rotation
 perform sub-space diagonalisation
    after iterative eigenvector-optimisation
 modified Broyden-mixing scheme, WC =      100.0
 initial mixing is a Kerker type mixing with AMIX =  0.4000 and BMIX =      1.0000
 Hartree-type preconditioning will be used
 using additional bands           51
 real space projection scheme for non local part
 use partial core corrections
 calculate Harris-corrections to forces 
   (improved forces if not selfconsistent)
 use gradient corrections 
 use of overlap-Matrix (Vanderbilt PP)
 Gauss-broadening in eV      SIGMA  =   0.05


--------------------------------------------------------------------------------------------------------


  energy-cutoff  :      500.00
  volume of cell :     4400.27
      direct lattice vectors                 reciprocal lattice vectors
    15.110600471  0.000000000  0.000000000     0.066178707  0.005884289  0.000000000
    -1.080094632 12.147476386  0.000000000     0.000000000  0.082321625  0.000000000
     0.000000000  0.000000000 23.972400665     0.000000000  0.000000000  0.041714637

  length of vectors
    15.110600471 12.195400238 23.972400665     0.066439793  0.082321625  0.041714637


 
 old parameters found on file WAVECAR:
  energy-cutoff  :      500.00
  volume of cell :     4400.27
      direct lattice vectors                 reciprocal lattice vectors
    15.110600471  0.000000000  0.000000000     0.066178707  0.005884289  0.000000000
    -1.080094632 12.147476386  0.000000000     0.000000000  0.082321625  0.000000000
     0.000000000  0.000000000 23.972400665     0.000000000  0.000000000  0.041714637

  length of vectors

 
 k-points in units of 2pi/SCALE and weight: Monkhorst Pack                          
   0.01654468  0.02205148  0.00000000       0.500
  -0.01654468  0.01910933  0.00000000       0.500
 
 k-points in reciprocal lattice and weights: Monkhorst Pack                          
   0.25000000  0.25000000  0.00000000       0.500
  -0.25000000  0.25000000  0.00000000       0.500
 
 position of ions in fractional coordinates (direct lattice) 
   0.08848000  0.32082999  0.03824000
   0.33847998  0.82083000  0.03824000
   0.58847999  0.32082999  0.03824000
   0.83848001  0.82083000  0.03824000
   0.07020001  0.83354995  0.04873000
   0.32019998  0.33355000  0.04873000
   0.57020004  0.83354995  0.04873000
   0.82020001  0.33355000  0.04873000
   0.23783000  0.06778000  0.05703000
   0.48783004  0.56778001  0.05703000
   0.73783001  0.06778000  0.05703000
   0.98782997  0.56778001  0.05703000
   0.21954999  0.58051001  0.06752000
   0.46955000  0.08051000  0.06752000
   0.71954999  0.58051001  0.06752000
   0.96955000  0.08051000  0.06752000
   0.10583158  0.98247893  0.17084503
   0.35638937  0.48369336  0.17110243
   0.60789861  0.98413858  0.17128782
   0.85599654  0.48318722  0.17319708
   0.08952565  0.49470162  0.18254803
   0.33906715  0.99509144  0.18217789
   0.58919286  0.49258209  0.18205817
   0.83873107  0.99498726  0.18277706
   0.00481917  0.23015077  0.19145794
   0.25315773  0.72988361  0.19133856
   0.50416354  0.22886790  0.19088916
   0.75812911  0.72942046  0.19114013
   0.23979688  0.24190532  0.20066159
   0.48762767  0.74308231  0.19942011
   0.74136300  0.24476685  0.20342800
   0.98859335  0.73977010  0.20274473
   0.12349066  0.64121489  0.31427157
   0.37164528  0.13979598  0.31288795
   0.62168142  0.64886033  0.30388323
   0.87455540  0.13679341  0.31386509
   0.11021654  0.16100108  0.31231181
   0.35846338  0.65959346  0.31277578
   0.60632868  0.15788756  0.31362029
   0.85882945  0.66352269  0.32132814
   0.02784326  0.88888951  0.32417533
   0.27596764  0.38849926  0.32551857
   0.52435461  0.88782092  0.32463180
   0.78470489  0.37992947  0.33209898
   0.01214114  0.40691618  0.33562837
   0.25931218  0.90672378  0.33616704
   0.50767144  0.40007625  0.33449096
   0.76003461  0.90568572  0.33690136
   0.70783418  0.55461534  0.41280921
   0.02440000  0.17254999  0.00000000
   0.27439999  0.67255002  0.00000000
   0.52439999  0.17254999  0.00000000
   0.77439999  0.67255002  0.00000000
   0.21455000  0.43156997  0.01581000
   0.46455001  0.93156996  0.01581000
   0.71455008  0.43156997  0.01581000
   0.96455004  0.93156996  0.01581000
   0.20673000  0.89092997  0.02490000
   0.45673000  0.39092998  0.02490000
   0.70672997  0.89092997  0.02490000
   0.95673004  0.39092998  0.02490000
   0.19748000  0.22610000  0.04418000
   0.44748002  0.72610003  0.04418000
   0.69748003  0.22610000  0.04418000
   0.94747999  0.72610003  0.04418000
   0.11054000  0.67523994  0.06158000
   0.36054002  0.17523999  0.06158000
   0.61053998  0.67523994  0.06158000
   0.86053999  0.17523999  0.06158000
   0.10129000  0.01041000  0.08086000
   0.35129000  0.51041000  0.08086000
   0.60128998  0.01041000  0.08086000
   0.85128994  0.51041000  0.08086000
   0.09348000  0.46976000  0.08995000
   0.34348000  0.96975995  0.08995000
   0.59348001  0.46976000  0.08995000
   0.84347996  0.96975995  0.08995000
   0.03362000  0.22878000  0.10576000
   0.28361999  0.72877998  0.10576000
   0.53361997  0.22878000  0.10576000
   0.78362002  0.72877998  0.10576000
   0.04532247  0.83266720  0.13369259
   0.29656401  0.33388364  0.13349980
   0.54613688  0.83404609  0.13330586
   0.79594183  0.33270383  0.13398160
   0.23154868  0.09341519  0.14617094
   0.48154146  0.59341434  0.14659544
   0.73173448  0.09367774  0.14691870
   0.98196970  0.59326752  0.14692850
   0.22576629  0.55230428  0.16049729
   0.47629883  0.05094300  0.16065283
   0.72525643  0.55182640  0.16076213
   0.97526034  0.05220724  0.16075451
   0.21509323  0.89024510  0.18103640
   0.46482795  0.38949326  0.18057580
   0.71504137  0.88865087  0.18089949
   0.96556476  0.39036682  0.18209697
   0.13036704  0.33489304  0.19200191
   0.37892577  0.83510700  0.19298564
   0.62863351  0.33525964  0.19442820
   0.87988161  0.83620326  0.19369269
   0.11789887  0.67128759  0.21473569
   0.36752761  0.16960063  0.21293068
   0.61806296  0.67085634  0.21326533
   0.86803967  0.16959854  0.21619848
   0.11577632  0.13022379  0.22375842
   0.36416823  0.63081935  0.22402740
   0.61511609  0.13139902  0.22494958
   0.86447367  0.63182713  0.22489931
   0.04741856  0.89311233  0.23969131
   0.29775702  0.39567915  0.24074597
   0.54733744  0.89332066  0.23995732
   0.79748806  0.39266682  0.24093041
   0.07079123  0.49217312  0.26877408
   0.31567260  0.99213051  0.26838804
   0.56104756  0.49413338  0.26892521
   0.80989113  0.99310779  0.26841769
   0.25191735  0.75022412  0.28257530
   0.49779783  0.25043901  0.28118261
   0.74909528  0.74594705  0.28323091
   0.00598170  0.25137970  0.28121059
   0.24630936  0.21405862  0.29089268
   0.49414013  0.71271221  0.28987743
   0.74406969  0.21465776  0.29602011
   0.99571315  0.71061856  0.29386725
   0.24003041  0.55408813  0.32923971
   0.48623342  0.05249574  0.32658002
   0.73011454  0.54500082  0.32478380
   0.99043356  0.05557603  0.32846645
   0.14819630  0.00397018  0.33043088
   0.39923667  0.50515673  0.33548318
   0.64341557  0.00007541  0.33388090
   0.89782400  0.49978166  0.32807685
   0.13880454  0.32065623  0.35163783
   0.38626362  0.81901691  0.35152141
   0.61769616  0.31013816  0.35508592
   0.89129230  0.83815794  0.34137763
   0.13343916  0.79940876  0.35631165
   0.38158043  0.29915340  0.35552661
   0.62753847  0.79375840  0.35476560
   0.89195356  0.29205484  0.35536782
   0.06745103  0.54292670  0.37489117
   0.31669609  0.04302081  0.37455008
   0.57955113  0.54554528  0.37868594
   0.81564394  0.04128176  0.37501691
   0.80300785  0.67552283  0.40210634
   0.76204002  0.41855895  0.41638864
   0.67635908  0.66079197  0.50251873
   0.71700709  0.69061230  0.48842333
 
 position of ions in cartesian coordinates  (Angst):
   0.99045921  3.89727473  0.91670460
   4.22806168  9.97101307  0.91670460
   8.54575920  3.89727473  0.91670460
  11.78336239  9.97101307  0.91670460
   0.16045142 10.12552833  1.16817511
   4.47814847  4.05179071  1.16817511
   7.71575212 10.12552833  1.16817511
  12.03344917  4.05179071  1.16817511
   3.52054525  0.82335597  1.36714601
   6.75814868  6.89709425  1.36714601
  11.07584571  0.82335597  1.36714601
  14.31344795  6.89709425  1.36714601
   2.69052649  7.05173159  1.61861647
   7.00822400  0.97799331  1.61861647
  10.24582672  7.05173159  1.61861647
  14.56352424  0.97799331  1.61861647
   0.53800854 11.93463960  4.09556555
   4.86282272  5.87565367  4.10173607
   8.12275018 11.95480019  4.10618021
  12.41273374  5.86950534  4.15194989
   0.81846180  6.00937628  4.37611443
   4.04871532 12.08784976  4.36724139
   8.37102270  5.98362927  4.36437135
  11.59904976 12.08658426  4.38160501
  -0.17576401  2.79575106  4.58970642
   3.03702189  8.86624391  4.58684465
   7.37101488  2.78016745  4.57607134
  10.66794291  8.86061781  4.58208774
   3.36219428  2.93853919  4.81033999
   6.56574775  9.02657479  4.78057886
  10.93806870  2.97329953  4.87665752
  14.13921747  8.98633983  4.86027792
   1.17344523  7.78914268  7.53384391
   5.46479040  1.69816840  7.50067529
   8.69314900  7.88201551  7.28481053
  13.06730734  1.66169468  7.52409979
   1.49154168  1.95575676  7.48686393
   4.70417357  8.01239601  7.49798626
   8.99145699  1.91793542  7.51823129
  12.26076139  8.06012616  7.70300688
  -0.53935634 10.79776436  7.77126097
   3.75042086  4.71928562  7.80346152
   6.96438240 10.78478371  7.78220363
  11.44700234  4.61518421  7.96120978
  -0.25604809  4.94300468  8.04581785
   2.93901529 11.01440565  8.05873091
   7.23910015  4.85991681  8.01855134
  10.50635309 11.00179595  8.07633442
  10.09676242  6.73717670  9.89602774
   0.18232835  2.09604693  0.00000000
   3.41993094  8.16978550  0.00000000
   7.73762846  2.09604693  0.00000000
  10.97523117  8.16978550  0.00000000
   2.77584291  5.24248600  0.37900365
   6.01344586 11.31622410  0.37900365
  10.33114434  5.24248600  0.37900365
  13.56874656 11.31622410  0.37900365
   2.16152573 10.82255077  0.59691280
   6.47922326  4.74881268  0.59691280
   9.71682548 10.82255077  0.59691280
  14.03452396  4.74881268  0.59691280
   2.73983193  2.74654436  1.05910064
   5.97743511  8.82028293  1.05910064
  10.29513263  2.74654436  1.05910064
  13.53273487  8.82028293  1.05910064
   0.94100273  8.20246124  1.47622036
   5.25870037  2.12872362  1.47622036
   8.49630260  8.20246124  1.47622036
  12.81400013  2.12872362  1.47622036
   1.51930892  0.12645522  1.93840825
   4.75691175  6.20019341  1.93840825
   9.07460880  0.12645522  1.93840825
  12.31221104  6.20019341  1.93840825
   0.90515363  5.70639848  2.15631746
   4.14275646 11.78013610  2.15631746
   8.46045399  5.70639848  2.15631746
  11.69805622 11.78013610  2.15631746
   0.26091433  2.77909971  2.53532100
   3.49851704  8.85283756  2.53532100
   7.81621408  2.77909971  2.53532100
  11.05381775  8.85283756  2.53532100
  -0.21450963 10.11480515  3.20493230
   4.12063430  4.05584366  3.20031079
   7.35160747 10.13155520  3.19566154
  11.66780733  4.04151196  3.21186056
   3.39794240  1.13475876  3.50406843
   6.63543695  7.20848673  3.51424457
  10.95576650  1.13794819  3.52199387
  14.19736674  7.20670318  3.52222886
   2.81492327  6.70910315  3.84750545
   7.14213812  0.61882887  3.85123394
  10.36303539  6.70329821  3.85385425
  14.68038060  0.63418624  3.85367159
   2.28863890 10.81423133  4.33987717
   6.60313989  4.73136019  4.32883533
   9.84487750 10.79486545  4.33659513
  14.16863015  4.74197173  4.36530155
   1.60820808  4.06810533  4.60274681
   4.82380137 10.14444260  4.62632902
   9.13691763  4.07255861  4.66091070
  12.39236086 10.15775936  4.64327873
   1.05646855  8.15445016  5.14772998
   5.37037809  2.06021967  5.10445948
   8.61471407  8.14921150  5.11248186
  12.93341814  2.06019421  5.18279650
   1.60879568  1.58189036  5.36402658
   4.82145605  7.66286319  5.37047450
   9.15285004  1.59616651  5.39258141
  12.38028320  7.67510511  5.39137643
  -0.24812292 10.84906095  5.74597613
   4.07191645  4.80650310  5.77125897
   7.30572650 10.85159166  5.75235296
  11.62640617  4.76991098  5.77568034
   0.53810446  5.97866139  6.44315982
   3.69840776 12.05188195  6.43390572
   7.94405471  6.00247357  6.44678280
  11.16529096 12.06375348  6.43461631
   2.99630944  9.11332974  6.77400842
   7.25152623  3.04220196  6.74062211
  10.51358613  9.06137413  6.78972497
  -0.18112684  3.05362896  6.74129284
   3.49067872  2.60027198  6.97339587
   6.69695751  8.65765474  6.94905787
  11.01148908  2.60755002  7.09631273
  14.27828826  8.63222222  7.04470340
   3.02853598  6.73077250  7.89266630
   7.29057858  0.63769081  7.82890720
  10.44381665  6.62038461  7.78584740
  14.90601844  0.67510846  7.87412928
   2.23504697  0.04822766  7.92122134
   5.48708882  6.13637943  8.04233731
   9.72231411  0.00091603  8.00392676
  13.02684831  6.07108588  7.86478961
   1.75108093  3.89516403  8.42960305
   4.95205954  9.94898857  8.42681206
   8.99878132  3.76739594  8.51226186
  12.56267203 10.18150381  8.18364138
   1.15290877  9.71079899  8.54164563
   5.44279545  3.63395886  8.52282625
   8.62514889  9.64216139  8.50458318
  13.16250699  3.54772926  8.51901982
   0.43281337  6.59518929  8.98704122
   4.73900156  0.52259431  8.97886452
   8.16812501  6.62699835  9.07801113
  12.28028148  0.50146923  8.99005561
  11.40430215  8.20589760  9.63945428
  11.06279906  5.08443500  9.98183520
   9.50647398  8.02695480 12.04658025
  10.08848108  8.38919656 11.70867964
 


--------------------------------------------------------------------------------------------------------


 k-point  1 :   0.2500 0.2500 0.0000  plane waves:  111683
 k-point  2 :  -0.2500 0.2500 0.0000  plane waves:  111725

 maximum and minimum number of plane-waves per node :     18644    18587

 maximum number of plane-waves:    111725
 maximum index in each direction: 
   IXMAX=   27   IYMAX=   21   IZMAX=   43
   IXMIN=  -27   IYMIN=  -22   IZMIN=  -43


 real space projection operators:
  total allocation   :      21605.34 KBytes
  max/ min on nodes  :       3608.31       3593.84


 parallel 3D FFT for wavefunctions:
    minimum data exchange during FFTs selected (reduces bandwidth)
 parallel 3D FFT for charge:
    minimum data exchange during FFTs selected (reduces bandwidth)


 total amount of memory used by VASP MPI-rank0   172709. kBytes
=======================================================================

   base      :      30000. kBytes
   nonlr-proj:      10859. kBytes
   fftplans  :       9317. kBytes
   grid      :      24886. kBytes
   one-center:        777. kBytes
   wavefun   :      96870. kBytes
 
     INWAV:  cpu time    8.2960: real time    8.3459
 Broyden mixing: mesh for mixing (old mesh)
   NGX = 55   NGY = 45   NGZ = 87
  (NGX  =168   NGY  =140   NGZ  =280)
  gives a total of 215325 points

 initial charge density was supplied:
 number of electron    1178.0000037 magnetization       0.0000000
 keeping initial charge density in first step


--------------------------------------------------------------------------------------------------------


 Maximum index for non-local projection operator          432
 Maximum index for augmentation-charges          480 (set IRDMAX)


--------------------------------------------------------------------------------------------------------


 First call to EWALD:  gamma=   0.108
 Maximum number of real-space cells 3x 4x 2
 Maximum number of reciprocal cells 3x 2x 4

    FEWALD:  cpu time    0.0047: real time    0.0047


--------------------------------------- Iteration      1(   1)  ---------------------------------------


    POTLOK:  cpu time    0.2171: real time    0.2182
    SETDIJ:  cpu time    0.0221: real time    0.0223
     EDDAV:  cpu time   27.7727: real time   27.8465
       DOS:  cpu time    0.0009: real time    0.0009
    CHARGE:  cpu time    1.1975: real time    1.2013
    MIXING:  cpu time    0.0099: real time    0.0100
    --------------------------------------------
      LOOP:  cpu time   29.2202: real time   29.2992

 eigenvalue-minimisations  :  6336
 total energy-change (2. order) :-0.1279057E+04  (-0.1268073E+00)
 number of electron    1178.0000037 magnetization       0.0000000
 augmentation part       73.1703893 magnetization       0.0000000

 Broyden mixing:
  rms(total) = 0.95735E-01    rms(broyden)= 0.95656E-01
  rms(prec ) = 0.96905E-01
  weight for this iteration     100.00

 Free energy of the ion-electron system (eV)
  ---------------------------------------------------
  alpha Z        PSCENC =      2061.33132521
  Ewald energy   TEWEN  =    401108.76443237
  -Hartree energ DENC   =   -497023.88572593
  -exchange      EXHF   =         0.00000000
  -V(xc)+E(xc)   XCENC  =      5221.02950473
  PAW double counting   =    128003.68151442  -127321.12783834
  entropy T*S    EENTRO =        -0.00000000
  eigenvalues    EBANDS =    -18651.38898202
  atomic energy  EATOM  =    105322.53856674
  Solvation  Ediel_sol  =         0.00000000
  ---------------------------------------------------
  free energy    TOTEN  =     -1279.05720282 eV

  energy without entropy =    -1279.05720282  energy(sigma->0) =    -1279.05720282


--------------------------------------------------------------------------------------------------------




--------------------------------------- Iteration      1(   2)  ---------------------------------------


    POTLOK:  cpu time    0.2125: real time    0.2173
    SETDIJ:  cpu time    0.0218: real time    0.0229
     EDDAV:  cpu time   27.6822: real time   27.7494
       DOS:  cpu time    0.0006: real time    0.0006
    CHARGE:  cpu time    1.1640: real time    1.1667
    MIXING:  cpu time    0.0063: real time    0.0063
    --------------------------------------------
      LOOP:  cpu time   29.0874: real time   29.1633

 eigenvalue-minimisations  :  6272
 total energy-change (2. order) :-0.1746051E+01  (-0.1132025E+00)
 number of electron    1178.0000037 magnetization       0.0000000
 augmentation part       73.0936007 magnetization      -0.0000000

 Broyden mixing:
  rms(total) = 0.40250E-01    rms(broyden)= 0.40133E-01
  rms(prec ) = 0.42254E-01
  weight for this iteration     100.00

 eigenvalues of (default mixing * dielectric matrix)
  average eigenvalue GAMMA=   0.7388
  0.7388

 Free energy of the ion-electron system (eV)
  ---------------------------------------------------
  alpha Z        PSCENC =      2061.33132521
  Ewald energy   TEWEN  =    401108.76443237
  -Hartree energ DENC   =   -497025.73083376
  -exchange      EXHF   =         0.00000000
  -V(xc)+E(xc)   XCENC  =      5221.12103145
  PAW double counting   =    127857.92015498  -127174.30921184
  entropy T*S    EENTRO =        -0.00000000
  eigenvalues    EBANDS =    -18652.43871878
  atomic energy  EATOM  =    105322.53856674
  Solvation  Ediel_sol  =         0.00000000
  ---------------------------------------------------
  free energy    TOTEN  =     -1280.80325364 eV

  energy without entropy =    -1280.80325364  energy(sigma->0) =    -1280.80325364


--------------------------------------------------------------------------------------------------------




--------------------------------------- Iteration      1(   3)  ---------------------------------------


    POTLOK:  cpu time    0.2069: real time    0.2100
    SETDIJ:  cpu time    0.0209: real time    0.0210
     EDDAV:  cpu time   29.6202: real time   29.6994
       DOS:  cpu time    0.0009: real time    0.0009
    CHARGE:  cpu time    1.1699: real time    1.1905
    MIXING:  cpu time    0.0063: real time    0.0063
    --------------------------------------------
      LOOP:  cpu time   31.0252: real time   31.1280

 eigenvalue-minimisations  :  6784
 total energy-change (2. order) :-0.9900465E-02  (-0.3877543E-02)
 number of electron    1178.0000037 magnetization       0.0000000
 augmentation part       73.1241521 magnetization      -0.0000000

 Broyden mixing:
  rms(total) = 0.27709E-01    rms(broyden)= 0.27691E-01
  rms(prec ) = 0.28112E-01
  weight for this iteration     100.00

 eigenvalues of (default mixing * dielectric matrix)
  average eigenvalue GAMMA=   0.6952
  0.6952  0.6952

 Free energy of the ion-electron system (eV)
  ---------------------------------------------------
  alpha Z        PSCENC =      2061.33132521
  Ewald energy   TEWEN  =    401108.76443237
  -Hartree energ DENC   =   -497023.19601795
  -exchange      EXHF   =         0.00000000
  -V(xc)+E(xc)   XCENC  =      5220.93304695
  PAW double counting   =    127886.87867887  -127202.53185175
  entropy T*S    EENTRO =        -0.00000000
  eigenvalues    EBANDS =    -18655.53133453
  atomic energy  EATOM  =    105322.53856674
  Solvation  Ediel_sol  =         0.00000000
  ---------------------------------------------------
  free energy    TOTEN  =     -1280.81315410 eV

  energy without entropy =    -1280.81315410  energy(sigma->0) =    -1280.81315410


--------------------------------------------------------------------------------------------------------




--------------------------------------- Iteration      1(   4)  ---------------------------------------


    POTLOK:  cpu time    0.2077: real time    0.2105
    SETDIJ:  cpu time    0.0211: real time    0.0211
     EDDAV:  cpu time   25.8401: real time   25.9076
       DOS:  cpu time    0.0006: real time    0.0006
    CHARGE:  cpu time    1.1643: real time    1.1671
    MIXING:  cpu time    0.0065: real time    0.0065
    --------------------------------------------
      LOOP:  cpu time   27.2403: real time   27.3135

 eigenvalue-minimisations  :  5696
 total energy-change (2. order) :-0.3221438E-04  (-0.2000397E-03)
 number of electron    1178.0000037 magnetization       0.0000000
 augmentation part       73.1210209 magnetization      -0.0000000

 Broyden mixing:
  rms(total) = 0.22440E-01    rms(broyden)= 0.22439E-01
  rms(prec ) = 0.22729E-01
  weight for this iteration     100.00

 eigenvalues of (default mixing * dielectric matrix)
  average eigenvalue GAMMA=   0.6857
  0.7721  0.7721  0.5130

 Free energy of the ion-electron system (eV)
  ---------------------------------------------------
  alpha Z        PSCENC =      2061.33132521
  Ewald energy   TEWEN  =    401108.76443237
  -Hartree energ DENC   =   -497023.83299172
  -exchange      EXHF   =         0.00000000
  -V(xc)+E(xc)   XCENC  =      5220.99762995
  PAW double counting   =    127916.04472912  -127231.64287099
  entropy T*S    EENTRO =        -0.00000000
  eigenvalues    EBANDS =    -18655.01400698
  atomic energy  EATOM  =    105322.53856674
  Solvation  Ediel_sol  =         0.00000000
  ---------------------------------------------------
  free energy    TOTEN  =     -1280.81318632 eV

  energy without entropy =    -1280.81318632  energy(sigma->0) =    -1280.81318632


--------------------------------------------------------------------------------------------------------




--------------------------------------- Iteration      1(   5)  ---------------------------------------


    POTLOK:  cpu time    0.2084: real time    0.2106
    SETDIJ:  cpu time    0.0210: real time    0.0211
     EDDAV:  cpu time   29.5362: real time   29.6126
       DOS:  cpu time    0.0010: real time    0.0006
    CHARGE:  cpu time    1.1642: real time    1.1674
    MIXING:  cpu time    0.0067: real time    0.0068
    --------------------------------------------
      LOOP:  cpu time   30.9375: real time   31.0190

 eigenvalue-minimisations  :  6784
 total energy-change (2. order) :-0.8141433E-05  (-0.1825862E-04)
 number of electron    1178.0000037 magnetization       0.0000000
 augmentation part       73.1270991 magnetization      -0.0000000

 Broyden mixing:
  rms(total) = 0.18948E-01    rms(broyden)= 0.18948E-01
  rms(prec ) = 0.19191E-01
  weight for this iteration     100.00

 eigenvalues of (default mixing * dielectric matrix)
  average eigenvalue GAMMA=   0.7334
  0.9166  0.9166  0.5503  0.5503

 Free energy of the ion-electron system (eV)
  ---------------------------------------------------
  alpha Z        PSCENC =      2061.33132521
  Ewald energy   TEWEN  =    401108.76443237
  -Hartree energ DENC   =   -497023.86920810
  -exchange      EXHF   =         0.00000000
  -V(xc)+E(xc)   XCENC  =      5221.00156179
  PAW double counting   =    127933.74453612  -127249.30654991
  entropy T*S    EENTRO =        -0.00000000
  eigenvalues    EBANDS =    -18655.01785867
  atomic energy  EATOM  =    105322.53856674
  Solvation  Ediel_sol  =         0.00000000
  ---------------------------------------------------
  free energy    TOTEN  =     -1280.81319446 eV

  energy without entropy =    -1280.81319446  energy(sigma->0) =    -1280.81319446


--------------------------------------------------------------------------------------------------------




--------------------------------------- Iteration      1(   6)  ---------------------------------------


    POTLOK:  cpu time    0.2072: real time    0.2108
    SETDIJ:  cpu time    0.0209: real time    0.0209
     EDDAV:  cpu time   29.0972: real time   29.2289
       DOS:  cpu time    0.0006: real time    0.0006
    CHARGE:  cpu time    1.1601: real time    1.1629
    MIXING:  cpu time    0.0072: real time    0.0072
    --------------------------------------------
      LOOP:  cpu time   30.4932: real time   30.6313

 eigenvalue-minimisations  :  6656
 total energy-change (2. order) :-0.1667264E-04  (-0.2155198E-05)
 number of electron    1178.0000037 magnetization       0.0000000
 augmentation part       73.1283792 magnetization      -0.0000000

 Broyden mixing:
  rms(total) = 0.16254E-01    rms(broyden)= 0.16254E-01
  rms(prec ) = 0.16475E-01
  weight for this iteration     100.00

 eigenvalues of (default mixing * dielectric matrix)
  average eigenvalue GAMMA=   0.8101
  1.1507  1.1507  0.5276  0.6107  0.6107

 Free energy of the ion-electron system (eV)
  ---------------------------------------------------
  alpha Z        PSCENC =      2061.33132521
  Ewald energy   TEWEN  =    401108.76443237
  -Hartree energ DENC   =   -497023.96168999
  -exchange      EXHF   =         0.00000000
  -V(xc)+E(xc)   XCENC  =      5221.00993635
  PAW double counting   =    127948.82208241  -127264.37337642
  entropy T*S    EENTRO =        -0.00000000
  eigenvalues    EBANDS =    -18654.94448779
  atomic energy  EATOM  =    105322.53856674
  Solvation  Ediel_sol  =         0.00000000
  ---------------------------------------------------
  free energy    TOTEN  =     -1280.81321113 eV

  energy without entropy =    -1280.81321113  energy(sigma->0) =    -1280.81321113


--------------------------------------------------------------------------------------------------------




--------------------------------------- Iteration      1(   7)  ---------------------------------------


    POTLOK:  cpu time    0.2081: real time    0.2088
    SETDIJ:  cpu time    0.0211: real time    0.0211
     EDDAV:  cpu time   29.3700: real time   29.5235
       DOS:  cpu time    0.0006: real time    0.0006
    CHARGE:  cpu time    1.1712: real time    1.1769
    MIXING:  cpu time    0.0104: real time    0.0103
    --------------------------------------------
      LOOP:  cpu time   30.7813: real time   30.9412

 eigenvalue-minimisations  :  6784
 total energy-change (2. order) :-0.1123427E-04  (-0.2420196E-05)
 number of electron    1178.0000037 magnetization       0.0000000
 augmentation part       73.1298660 magnetization      -0.0000000

 Broyden mixing:
  rms(total) = 0.12808E-01    rms(broyden)= 0.12808E-01
  rms(prec ) = 0.12980E-01
  weight for this iteration     100.00

 eigenvalues of (default mixing * dielectric matrix)
  average eigenvalue GAMMA=   0.8615
  1.3479  1.3479  0.6873  0.6873  0.5493  0.5493

 Free energy of the ion-electron system (eV)
  ---------------------------------------------------
  alpha Z        PSCENC =      2061.33132521
  Ewald energy   TEWEN  =    401108.76443237
  -Hartree energ DENC   =   -497023.97199857
  -exchange      EXHF   =         0.00000000
  -V(xc)+E(xc)   XCENC  =      5221.01554463
  PAW double counting   =    127967.12677362  -127282.66474654
  entropy T*S    EENTRO =        -0.00000000
  eigenvalues    EBANDS =    -18654.95311982
  atomic energy  EATOM  =    105322.53856674
  Solvation  Ediel_sol  =         0.00000000
  ---------------------------------------------------
  free energy    TOTEN  =     -1280.81322236 eV

  energy without entropy =    -1280.81322236  energy(sigma->0) =    -1280.81322236


--------------------------------------------------------------------------------------------------------




--------------------------------------- Iteration      1(   8)  ---------------------------------------


    POTLOK:  cpu time    0.2081: real time    0.2112
    SETDIJ:  cpu time    0.0210: real time    0.0211
     EDDAV:  cpu time   27.4791: real time   27.5462
       DOS:  cpu time    0.0006: real time    0.0006
    CHARGE:  cpu time    1.1719: real time    1.1747
    MIXING:  cpu time    0.0079: real time    0.0079
    --------------------------------------------
      LOOP:  cpu time   28.8885: real time   28.9616

 eigenvalue-minimisations  :  6240
 total energy-change (2. order) :-0.7216644E-05  (-0.1495600E-05)
 number of electron    1178.0000037 magnetization       0.0000000
 augmentation part       73.1315273 magnetization      -0.0000000

 Broyden mixing:
  rms(total) = 0.10661E-01    rms(broyden)= 0.10661E-01
  rms(prec ) = 0.10796E-01
  weight for this iteration     100.00

 eigenvalues of (default mixing * dielectric matrix)
  average eigenvalue GAMMA=   0.9088
  1.5761  1.5761  0.7637  0.7637  0.5254  0.5784  0.5784

 Free energy of the ion-electron system (eV)
  ---------------------------------------------------
  alpha Z        PSCENC =      2061.33132521
  Ewald energy   TEWEN  =    401108.76443237
  -Hartree energ DENC   =   -497023.97559494
  -exchange      EXHF   =         0.00000000
  -V(xc)+E(xc)   XCENC  =      5221.01832835
  PAW double counting   =    127978.70933059  -127294.23892554
  entropy T*S    EENTRO =        -0.00000000
  eigenvalues    EBANDS =    -18654.96069235
  atomic energy  EATOM  =    105322.53856674
  Solvation  Ediel_sol  =         0.00000000
  ---------------------------------------------------
  free energy    TOTEN  =     -1280.81322958 eV

  energy without entropy =    -1280.81322958  energy(sigma->0) =    -1280.81322958


--------------------------------------------------------------------------------------------------------




--------------------------------------- Iteration      1(   9)  ---------------------------------------


    POTLOK:  cpu time    0.2066: real time    0.2101
    SETDIJ:  cpu time    0.0210: real time    0.0211
     EDDAV:  cpu time   19.9676: real time   20.0268
       DOS:  cpu time    0.0007: real time    0.0006
    CHARGE:  cpu time    1.1634: real time    1.1662
    MIXING:  cpu time    0.0084: real time    0.0084
    --------------------------------------------
      LOOP:  cpu time   21.3676: real time   21.4333

 eigenvalue-minimisations  :  4032
 total energy-change (2. order) :-0.5608745E-05  (-0.3452988E-06)
 number of electron    1178.0000037 magnetization      -0.0000000
 augmentation part       73.1322226 magnetization      -0.0000000

 Broyden mixing:
  rms(total) = 0.91785E-02    rms(broyden)= 0.91785E-02
  rms(prec ) = 0.92984E-02
  weight for this iteration     100.00

 eigenvalues of (default mixing * dielectric matrix)
  average eigenvalue GAMMA=   1.0699
  2.1134  2.1134  0.9258  0.9258  0.6629  0.6629  0.5775  0.5775

 Free energy of the ion-electron system (eV)
  ---------------------------------------------------
  alpha Z        PSCENC =      2061.33132521
  Ewald energy   TEWEN  =    401108.76443237
  -Hartree energ DENC   =   -497023.96890380
  -exchange      EXHF   =         0.00000000
  -V(xc)+E(xc)   XCENC  =      5221.01954182
  PAW double counting   =    127986.80424665  -127302.33283714
  entropy T*S    EENTRO =        -0.00000000
  eigenvalues    EBANDS =    -18654.96960704
  atomic energy  EATOM  =    105322.53856674
  Solvation  Ediel_sol  =         0.00000000
  ---------------------------------------------------
  free energy    TOTEN  =     -1280.81323519 eV

  energy without entropy =    -1280.81323519  energy(sigma->0) =    -1280.81323519


--------------------------------------------------------------------------------------------------------




--------------------------------------- Iteration      1(  10)  ---------------------------------------


    POTLOK:  cpu time    0.2080: real time    0.2087
    SETDIJ:  cpu time    0.0210: real time    0.0211
     EDDAV:  cpu time   28.2638: real time   28.3317
       DOS:  cpu time    0.0006: real time    0.0006
    CHARGE:  cpu time    1.1647: real time    1.1675
    MIXING:  cpu time    0.0091: real time    0.0092
    --------------------------------------------
      LOOP:  cpu time   29.6673: real time   29.7386

 eigenvalue-minimisations  :  6432
 total energy-change (2. order) :-0.8272793E-05  (-0.2897925E-05)
 number of electron    1178.0000037 magnetization      -0.0000000
 augmentation part       73.1335460 magnetization      -0.0000000

 Broyden mixing:
  rms(total) = 0.50813E-02    rms(broyden)= 0.50812E-02
  rms(prec ) = 0.51503E-02
  weight for this iteration     100.00

 eigenvalues of (default mixing * dielectric matrix)
  average eigenvalue GAMMA=   1.1267
  2.4209  2.4209  1.0700  1.0700  0.6840  0.6840  0.5930  0.5986  0.5986

 Free energy of the ion-electron system (eV)
  ---------------------------------------------------
  alpha Z        PSCENC =      2061.33132521
  Ewald energy   TEWEN  =    401108.76443237
  -Hartree energ DENC   =   -497023.95278702
  -exchange      EXHF   =         0.00000000
  -V(xc)+E(xc)   XCENC  =      5221.02341293
  PAW double counting   =    128008.51321553  -127324.03266709
  entropy T*S    EENTRO =        -0.00000000
  eigenvalues    EBANDS =    -18654.99874212
  atomic energy  EATOM  =    105322.53856674
  Solvation  Ediel_sol  =         0.00000000
  ---------------------------------------------------
  free energy    TOTEN  =     -1280.81324346 eV

  energy without entropy =    -1280.81324346  energy(sigma->0) =    -1280.81324346


--------------------------------------------------------------------------------------------------------




--------------------------------------- Iteration      1(  11)  ---------------------------------------


    POTLOK:  cpu time    0.2074: real time    0.2080
    SETDIJ:  cpu time    0.0210: real time    0.0211
     EDDAV:  cpu time   29.4438: real time   29.5156
       DOS:  cpu time    0.0005: real time    0.0005
    CHARGE:  cpu time    1.1664: real time    1.1691
    MIXING:  cpu time    0.0092: real time    0.0093
    --------------------------------------------
      LOOP:  cpu time   30.8483: real time   30.9236

 eigenvalue-minimisations  :  6784
 total energy-change (2. order) :-0.5551046E-05  (-0.2387636E-05)
 number of electron    1178.0000037 magnetization      -0.0000000
 augmentation part       73.1353108 magnetization      -0.0000000

 Broyden mixing:
  rms(total) = 0.18741E-02    rms(broyden)= 0.18739E-02
  rms(prec ) = 0.18961E-02
  weight for this iteration     100.00

 eigenvalues of (default mixing * dielectric matrix)
  average eigenvalue GAMMA=   1.1493
  2.6636  2.6636  1.1515  1.1515  0.6915  0.6915  0.6550  0.6550  0.5848  0.5848

 Free energy of the ion-electron system (eV)
  ---------------------------------------------------
  alpha Z        PSCENC =      2061.33132521
  Ewald energy   TEWEN  =    401108.76443237
  -Hartree energ DENC   =   -497023.96267047
  -exchange      EXHF   =         0.00000000
  -V(xc)+E(xc)   XCENC  =      5221.02784999
  PAW double counting   =    128025.95380608  -127341.46062312
  entropy T*S    EENTRO =        -0.00000000
  eigenvalues    EBANDS =    -18655.00593581
  atomic energy  EATOM  =    105322.53856674
  Solvation  Ediel_sol  =         0.00000000
  ---------------------------------------------------
  free energy    TOTEN  =     -1280.81324901 eV

  energy without entropy =    -1280.81324901  energy(sigma->0) =    -1280.81324901


--------------------------------------------------------------------------------------------------------




--------------------------------------- Iteration      1(  12)  ---------------------------------------


    POTLOK:  cpu time    0.2067: real time    0.2090
    SETDIJ:  cpu time    0.0210: real time    0.0210
     EDDAV:  cpu time   17.2290: real time   17.2711
       DOS:  cpu time    0.0006: real time    0.0006
    CHARGE:  cpu time    1.1654: real time    1.1682
    MIXING:  cpu time    0.0099: real time    0.0099
    --------------------------------------------
      LOOP:  cpu time   18.6326: real time   18.6798

 eigenvalue-minimisations  :  3232
 total energy-change (2. order) :-0.1155742E-05  (-0.1910455E-06)
 number of electron    1178.0000037 magnetization      -0.0000000
 augmentation part       73.1358114 magnetization      -0.0000000

 Broyden mixing:
  rms(total) = 0.13768E-02    rms(broyden)= 0.13768E-02
  rms(prec ) = 0.13969E-02
  weight for this iteration     100.00

 eigenvalues of (default mixing * dielectric matrix)
  average eigenvalue GAMMA=   1.1582
  2.7687  2.7687  1.2788  1.2788  0.7530  0.7530  0.6462  0.6462  0.5921  0.6273
  0.6273

 Free energy of the ion-electron system (eV)
  ---------------------------------------------------
  alpha Z        PSCENC =      2061.33132521
  Ewald energy   TEWEN  =    401108.76443237
  -Hartree energ DENC   =   -497023.96927277
  -exchange      EXHF   =         0.00000000
  -V(xc)+E(xc)   XCENC  =      5221.02869739
  PAW double counting   =    128028.75667290  -127344.26156892
  entropy T*S    EENTRO =        -0.00000000
  eigenvalues    EBANDS =    -18655.00210309
  atomic energy  EATOM  =    105322.53856674
  Solvation  Ediel_sol  =         0.00000000
  ---------------------------------------------------
  free energy    TOTEN  =     -1280.81325017 eV

  energy without entropy =    -1280.81325017  energy(sigma->0) =    -1280.81325017


--------------------------------------------------------------------------------------------------------




--------------------------------------- Iteration      1(  13)  ---------------------------------------


    POTLOK:  cpu time    0.2068: real time    0.2106
    SETDIJ:  cpu time    0.0210: real time    0.0211
     EDDAV:  cpu time   16.8196: real time   16.8599
       DOS:  cpu time    0.0006: real time    0.0006
    --------------------------------------------
      LOOP:  cpu time   17.0480: real time   17.0922

 eigenvalue-minimisations  :  3136
 total energy-change (2. order) :-0.4506728E-06  (-0.1235715E-06)
 number of electron    1178.0000037 magnetization      -0.0000000
 augmentation part       73.1358114 magnetization      -0.0000000

 Free energy of the ion-electron system (eV)
  ---------------------------------------------------
  alpha Z        PSCENC =      2061.33132521
  Ewald energy   TEWEN  =    401108.76443237
  -Hartree energ DENC   =   -497023.96594453
  -exchange      EXHF   =         0.00000000
  -V(xc)+E(xc)   XCENC  =      5221.02942003
  PAW double counting   =    128032.37867224  -127347.87964676
  entropy T*S    EENTRO =        -0.00000000
  eigenvalues    EBANDS =    -18655.01007592
  atomic energy  EATOM  =    105322.53856674
  Solvation  Ediel_sol  =         0.00000000
  ---------------------------------------------------
  free energy    TOTEN  =     -1280.81325062 eV

  energy without entropy =    -1280.81325062  energy(sigma->0) =    -1280.81325062


--------------------------------------------------------------------------------------------------------




 average (electrostatic) potential at core
  the test charge radii are     1.0638  0.7215  0.5201
  (the norm of the test charge is              1.0000)
       1 -84.9312       2 -84.9772       3 -84.9919       4 -84.9535       5 -85.2722
       6 -85.3273       7 -85.3327       8 -85.2817       9 -85.8292      10 -85.8920
      11 -85.8244      12 -85.7826      13 -84.4378      14 -84.4762      15 -84.4472
      16 -84.4173      17 -85.1816      18 -85.2528      19 -85.2537      20 -85.1017
      21 -85.0728      22 -85.1449      23 -85.2552      24 -85.1114      25 -85.0101
      26 -85.0886      27 -85.0742      28 -85.0498      29 -85.2608      30 -85.3382
      31 -85.2373      32 -85.2162      33 -84.8189      34 -84.9137      35 -85.3060
      36 -84.8283      37 -85.1042      38 -85.2171      39 -85.1084      40 -85.1104
      41 -85.0563      42 -85.4400      43 -85.3913      44 -85.0160      45 -84.8849
      46 -85.0048      47 -85.3828      48 -85.0270      49 -84.7647      50 -72.8102
[...]
   -.410E+01 -.579E+02 -.524E+03   0.507E+01 0.610E+02 0.523E+03   -.973E+00 -.317E+01 0.760E+00   -.200E-03 -.542E-04 -.618E-04
   0.207E+01 -.758E+02 -.501E+03   -.575E+00 0.792E+02 0.500E+03   -.150E+01 -.344E+01 0.828E+00   0.757E-04 0.195E-05 0.636E-05
   -.104E+02 -.484E+02 -.501E+03   0.108E+02 0.535E+02 0.506E+03   -.454E+00 -.508E+01 -.456E+01   0.181E-03 0.376E-03 -.211E-03
   -.348E+02 0.460E+02 -.738E+03   0.354E+02 -.474E+02 0.735E+03   -.548E+00 0.148E+01 0.251E+01   -.309E-03 -.529E-03 -.414E-03
   0.439E+01 0.485E+02 -.750E+03   -.482E+01 -.503E+02 0.747E+03   0.434E+00 0.180E+01 0.296E+01   -.213E-03 -.454E-03 -.610E-03
   0.506E+02 0.608E+02 -.711E+03   -.518E+02 -.623E+02 0.708E+03   0.120E+01 0.153E+01 0.273E+01   0.140E-03 -.282E-03 -.490E-03
   0.120E+02 0.202E+02 -.718E+03   -.137E+02 -.210E+02 0.715E+03   0.168E+01 0.741E+00 0.332E+01   0.997E-05 -.690E-03 -.387E-03
   0.315E+02 -.560E+02 -.918E+03   -.356E+02 0.603E+02 0.918E+03   0.417E+01 -.432E+01 0.655E+00   0.337E-03 0.241E-03 -.676E-03
   0.494E+02 -.251E+02 -.875E+03   -.528E+02 0.276E+02 0.874E+03   0.342E+01 -.248E+01 0.116E+01   0.171E-03 0.267E-03 -.676E-03
   0.929E+01 -.101E+03 -.828E+03   -.972E+01 0.106E+03 0.827E+03   0.437E+00 -.495E+01 0.111E+01   0.391E-03 -.207E-03 -.482E-03
   0.169E+02 -.418E+02 -.893E+03   -.221E+02 0.461E+02 0.894E+03   0.521E+01 -.437E+01 -.245E+00   0.264E-03 0.103E-03 -.452E-03
   0.355E+01 0.318E+02 -.105E+04   -.171E+01 -.344E+02 0.105E+04   -.182E+01 0.261E+01 -.265E+01   -.344E-03 0.162E-03 -.639E-03
   0.610E+02 0.193E+02 -.102E+04   -.613E+02 -.216E+02 0.103E+04   0.272E+00 0.224E+01 -.290E+01   -.270E-04 0.237E-03 -.544E-03
   0.109E+02 0.663E+02 -.105E+04   -.952E+01 -.701E+02 0.105E+04   -.136E+01 0.382E+01 -.199E+01   -.617E-04 -.122E-03 -.229E-03
   -.362E+02 0.235E+02 -.104E+04   0.368E+02 -.269E+02 0.104E+04   -.597E+00 0.336E+01 -.214E+01   -.539E-03 0.268E-04 -.343E-03
   0.236E+02 0.244E+02 -.142E+04   -.275E+02 -.261E+02 0.142E+04   0.398E+01 0.166E+01 -.464E+01   0.121E-03 -.662E-03 -.441E-03
   0.457E+02 0.371E+02 -.138E+04   -.492E+02 -.391E+02 0.139E+04   0.349E+01 0.201E+01 -.388E+01   0.362E-03 -.581E-03 -.395E-03
   0.162E+02 0.678E+02 -.104E+04   -.164E+02 -.712E+02 0.103E+04   0.231E+00 0.337E+01 0.105E+02   0.422E-03 0.237E-04 -.503E-03
   -.854E+01 0.197E+02 -.141E+04   0.615E+01 -.221E+02 0.141E+04   0.239E+01 0.242E+01 -.488E+01   -.237E-04 -.495E-03 -.192E-03
   -.296E+02 -.345E+02 -.140E+04   0.327E+02 0.358E+02 0.140E+04   -.314E+01 -.127E+01 -.290E+01   -.276E-03 0.180E-03 -.752E-03
   0.179E+02 -.323E+02 -.145E+04   -.148E+02 0.332E+02 0.145E+04   -.313E+01 -.941E+00 -.446E+01   -.334E-03 0.778E-04 -.649E-03
   -.686E+01 -.435E+02 -.142E+04   0.114E+02 0.447E+02 0.142E+04   -.453E+01 -.115E+01 -.387E+01   0.387E-05 0.119E-03 -.551E-03
   -.121E+03 -.194E+02 -.124E+04   0.125E+03 0.225E+02 0.124E+04   -.365E+01 -.304E+01 0.393E+00   -.838E-04 0.207E-03 -.535E-03
   -.358E+02 -.605E+01 -.164E+04   0.361E+02 0.940E+01 0.165E+04   -.321E+00 -.336E+01 -.860E+01   0.433E-05 0.131E-03 -.542E-03
   0.584E+01 -.257E+02 -.164E+04   -.529E+01 0.296E+02 0.165E+04   -.544E+00 -.383E+01 -.842E+01   0.216E-03 0.146E-03 -.372E-03
   -.778E+00 0.707E+02 -.159E+04   0.778E+01 -.666E+02 0.160E+04   -.700E+01 -.406E+01 -.103E+02   0.366E-03 -.156E-04 -.375E-03
   -.703E+02 -.977E+02 -.148E+04   0.697E+02 0.101E+03 0.148E+04   0.666E+00 -.350E+01 -.527E+01   0.194E-03 0.175E-03 -.552E-03
   -.359E+02 0.734E+01 -.169E+04   0.373E+02 -.873E+01 0.170E+04   -.146E+01 0.140E+01 -.111E+02   -.555E-03 0.226E-03 -.278E-03
   0.257E+02 0.386E+02 -.169E+04   -.243E+02 -.408E+02 0.170E+04   -.137E+01 0.214E+01 -.113E+02   -.344E-03 0.191E-03 -.507E-03
   0.570E+02 -.641E+02 -.164E+04   -.542E+02 0.636E+02 0.166E+04   -.278E+01 0.468E+00 -.117E+02   -.231E-04 0.293E-03 -.547E-03
   -.961E+02 0.827E+02 -.164E+04   0.996E+02 -.846E+02 0.165E+04   -.343E+01 0.188E+01 -.117E+02   -.260E-03 0.150E-03 0.607E-04
   -.567E+02 -.423E+02 -.183E+04   0.565E+02 0.460E+02 0.185E+04   0.186E+00 -.374E+01 -.184E+02   -.399E-03 -.319E-03 -.729E-03
   0.776E+01 -.423E+02 -.184E+04   -.757E+01 0.461E+02 0.186E+04   -.199E+00 -.385E+01 -.182E+02   -.104E-03 -.167E-03 -.828E-03
   0.255E+03 -.187E+02 -.169E+04   -.266E+03 0.205E+02 0.170E+04   0.106E+02 -.177E+01 -.641E+01   0.882E-04 -.722E-04 -.572E-03
   -.978E+01 -.621E+02 -.183E+04   0.980E+01 0.667E+02 0.185E+04   -.330E-01 -.465E+01 -.183E+02   0.914E-04 -.199E-03 -.733E-03
   -.149E+03 -.212E+03 -.179E+04   0.157E+03 0.225E+03 0.180E+04   -.785E+01 -.133E+02 -.947E+01   0.376E-03 -.435E-03 -.577E-03
   -.102E+03 0.239E+03 -.183E+04   0.110E+03 -.254E+03 0.185E+04   -.805E+01 0.148E+02 -.128E+02   0.343E-03 0.281E-03 -.657E-03
   0.269E+02 -.606E+01 -.250E+03   -.306E+02 0.407E+01 0.253E+03   0.375E+01 0.198E+01 -.249E+01   0.242E-04 0.287E-04 0.482E-04
   -.776E+01 -.321E+02 -.251E+03   0.115E+02 0.348E+02 0.249E+03   -.380E+01 -.272E+01 0.187E+01   0.378E-04 0.277E-04 0.339E-04
 -----------------------------------------------------------------------------------------------
   0.280E+02 0.224E+02 0.722E+02   -.465E-12 -.853E-13 0.311E-10   -.279E+02 -.226E+02 -.723E+02   0.289E-02 0.880E-03 0.198E-01
 
 
 POSITION                                       TOTAL-FORCE (eV/Angst)
 -----------------------------------------------------------------------------------
      0.99046      3.89727      0.91670        -1.494701     -1.862296     -0.675641
      4.22806      9.97101      0.91670        -1.504106     -1.879626     -0.741255
      8.54576      3.89727      0.91670        -1.350938     -1.927294     -0.775261
     11.78336      9.97101      0.91670        -1.346564     -1.842191     -0.726441
      0.16045     10.12553      1.16818        -0.257265      1.647926      0.412828
      4.47815      4.05179      1.16818        -0.196196      1.717649      0.205714
      7.71575     10.12553      1.16818        -0.092521      1.768716      0.140214
     12.03345      4.05179      1.16818        -0.127160      1.819243      0.511027
      3.52055      0.82336      1.36715        -0.851015     -0.880251      1.559658
      6.75815      6.89709      1.36715        -0.839857     -0.881108      1.538231
     11.07585      0.82336      1.36715        -0.752498     -0.833488      1.713768
     14.31345      6.89709      1.36715        -0.942311     -0.946392      1.784422
      2.69053      7.05173      1.61862         1.466048      0.474729     -2.486315
      7.00822      0.97799      1.61862         1.583720      0.428449     -2.476390
     10.24583      7.05173      1.61862         1.757342      0.412887     -2.427167
     14.56352      0.97799      1.61862         1.520182      0.501287     -2.430816
      0.53801     11.93464      4.09557        -0.004600      0.006416      0.003435
      4.86282      5.87565      4.10174         0.004376     -0.001032      0.001020
      8.12275     11.95480      4.10618         0.002280      0.000215      0.003187
     12.41273      5.86951      4.15195         0.000217      0.001205      0.004928
      0.81846      6.00938      4.37611         0.002185     -0.005186     -0.000646
      4.04872     12.08785      4.36724        -0.001453      0.004638     -0.000325
      8.37102      5.98363      4.36437        -0.006538     -0.002014      0.000354
     11.59905     12.08658      4.38161         0.002257     -0.001249      0.005737
     -0.17576      2.79575      4.58971         0.003256      0.000610      0.001343
      3.03702      8.86624      4.58684        -0.001142      0.001921     -0.000327
      7.37101      2.78017      4.57607        -0.002249      0.000545     -0.001128
     10.66794      8.86062      4.58209        -0.000228     -0.000903     -0.002042
      3.36219      2.93854      4.81034        -0.001134     -0.003665      0.002586
      6.56575      9.02657      4.78058         0.001906     -0.002248      0.001837
     10.93807      2.97330      4.87666         0.000394     -0.003064      0.003881
     14.13922      8.98634      4.86028        -0.001423      0.002152      0.004440
      1.17345      7.78914      7.53384         0.000418     -0.002909      0.004688
      5.46479      1.69817      7.50068        -0.000140      0.006345      0.000599
      8.69315      7.88202      7.28481        -0.000408      0.001488      0.001225
     13.06731      1.66169      7.52410         0.006271     -0.004419      0.000785
      1.49154      1.95576      7.48686        -0.004040      0.004117     -0.000186
      4.70417      8.01240      7.49799         0.001050     -0.005111      0.003642
      8.99146      1.91794      7.51823        -0.006160      0.001510      0.006945
     12.26076      8.06013      7.70301         0.009905     -0.000357     -0.001194
     -0.53936     10.79776      7.77126        -0.002134     -0.004753      0.000726
      3.75042      4.71929      7.80346         0.003443      0.000762      0.001207
      6.96438     10.78478      7.78220        -0.003073     -0.001862      0.003924
     11.44700      4.61518      7.96121        -0.005967      0.000558     -0.000448
     -0.25605      4.94300      8.04582         0.005315      0.000391      0.002187
      2.93902     11.01441      8.05873         0.001486     -0.003130      0.001990
      7.23910      4.85992      8.01855        -0.000876      0.000064      0.002443
     10.50635     11.00180      8.07633         0.002380      0.004542      0.001008
     10.09676      6.73718      9.89603        -0.011131      0.000670     -0.003427
      0.18233      2.09605      0.00000         0.269541      0.969089      1.258807
      3.41993      8.16979      0.00000         0.289372      0.994055      1.261002
      7.73763      2.09605      0.00000         0.258510      0.981522      1.276130
     10.97523      8.16979      0.00000         0.235312      0.981335      1.275177
      2.77584      5.24249      0.37900         0.000347     -0.930864      0.578655
      6.01345     11.31622      0.37900        -0.037094     -0.927843      0.580554
     10.33114      5.24249      0.37900        -0.114393     -0.922557      0.570920
     13.56875     11.31622      0.37900        -0.052076     -0.925143      0.564328
      2.16153     10.82255      0.59691         0.416133      1.208202     -0.193241
      6.47922      4.74881      0.59691         0.397034      1.219500     -0.193755
      9.71683     10.82255      0.59691         0.345811      1.184436     -0.199711
     14.03452      4.74881      0.59691         0.395776      1.173216     -0.221579
      2.73983      2.74654      1.05910         1.191543     -1.027973     -0.433247
      5.97744      8.82028      1.05910         1.165933     -1.055705     -0.410165
     10.29513      2.74654      1.05910         1.109279     -1.024890     -0.457176
     13.53273      8.82028      1.05910         1.130609     -1.015329     -0.467153
      0.94100      8.20246      1.47622        -1.098454     -0.308094     -0.914759
      5.25870      2.12872      1.47622        -1.116920     -0.306919     -0.897879
      8.49630      8.20246      1.47622        -1.191594     -0.319075     -0.896007
     12.81400      2.12872      1.47622        -1.151756     -0.325257     -0.915657
      1.51931      0.12646      1.93841         0.367478     -0.077499      0.201510
      4.75691      6.20019      1.93841         0.427362     -0.015403      0.214623
      9.07461      0.12646      1.93841         0.419756     -0.030913      0.249657
     12.31221      6.20019      1.93841         0.360177     -0.077923      0.361672
      0.90515      5.70640      2.15632        -0.354501      0.325386      0.101925
      4.14276     11.78014      2.15632        -0.349101      0.325063      0.135272
      8.46045      5.70640      2.15632        -0.407015      0.305934      0.209197
     11.69806     11.78014      2.15632        -0.408500      0.320225      0.164576
      0.26091      2.77910      2.53532         0.209068      0.396713      0.496488
      3.49852      8.85284      2.53532         0.231764      0.419136      0.587245
      7.81621      2.77910      2.53532         0.235305      0.408838      0.496258
     11.05382      8.85284      2.53532         0.258599      0.391098      0.489628
     -0.21451     10.11481      3.20493         0.001339     -0.003630     -0.004029
      4.12063      4.05584      3.20031         0.001391     -0.000717     -0.000971
      7.35161     10.13156      3.19566         0.004931      0.002080     -0.003215
     11.66781      4.04151      3.21186         0.000128     -0.003961     -0.003259
      3.39794      1.13476      3.50407         0.002892      0.002666     -0.001238
      6.63544      7.20849      3.51424        -0.005654      0.009425     -0.001786
     10.95577      1.13795      3.52199         0.004598      0.001653     -0.006065
     14.19737      7.20670      3.52223        -0.001699     -0.009378      0.006890
      2.81492      6.70910      3.84751        -0.003878     -0.000528      0.003592
      7.14214      0.61883      3.85123        -0.002770      0.000811      0.002598
     10.36304      6.70330      3.85385        -0.004856     -0.008950     -0.005626
     14.68038      0.63419      3.85367         0.000324     -0.004502     -0.008397
      2.28864     10.81423      4.33988         0.009041      0.002142      0.002751
      6.60314      4.73136      4.32884        -0.005750      0.001116     -0.002919
      9.84488     10.79487      4.33660         0.002449      0.004417     -0.004238
     14.16863      4.74197      4.36530        -0.008452     -0.010050     -0.006930
      1.60821      4.06811      4.60275        -0.004522      0.000397     -0.002036
      4.82380     10.14444      4.62633         0.010971      0.002118      0.000115
      9.13692      4.07256      4.66091         0.000211      0.001089     -0.003585
     12.39236     10.15776      4.64328        -0.006564     -0.001030     -0.003435
      1.05647      8.15445      5.14773        -0.000230     -0.005556     -0.004174
      5.37038      2.06022      5.10446         0.006930      0.003615      0.003723
      8.61471      8.14921      5.11248        -0.000071     -0.006289     -0.002157
     12.93342      2.06019      5.18280        -0.004742      0.004503      0.001033
      1.60880      1.58189      5.36403        -0.004751      0.003938      0.004313
      4.82146      7.66286      5.37047        -0.000410      0.001311     -0.004146
      9.15285      1.59617      5.39258         0.001642     -0.000258     -0.003317
     12.38028      7.67511      5.39138         0.003860     -0.000068     -0.004444
     -0.24812     10.84906      5.74598         0.000065      0.009846     -0.010131
      4.07192      4.80650      5.77126        -0.000169      0.007598     -0.008327
      7.30573     10.85159      5.75235         0.000879      0.008041     -0.009974
     11.62641      4.76991      5.77568         0.005017      0.005298      0.004338
      0.53810      5.97866      6.44316        -0.004485     -0.000326     -0.005524
      3.69841     12.05188      6.43391         0.002783     -0.007769      0.011976
      7.94405      6.00247      6.44678         0.002810     -0.005253     -0.001870
     11.16529     12.06375      6.43462        -0.002751     -0.013854      0.000728
      2.99631      9.11333      6.77401        -0.000854      0.006677      0.001653
      7.25153      3.04220      6.74062        -0.002405     -0.002839      0.001103
     10.51359      9.06137      6.78972         0.000175     -0.004910     -0.004891
     -0.18113      3.05363      6.74129         0.001981      0.000128     -0.004202
      3.49068      2.60027      6.97340         0.006924     -0.000289      0.001989
      6.69696      8.65765      6.94906         0.006362     -0.011470     -0.002020
     11.01149      2.60755      7.09631         0.018633     -0.001128     -0.002275
     14.27829      8.63222      7.04470        -0.002208      0.001400     -0.003495
      3.02854      6.73077      7.89267        -0.002175      0.000779      0.000498
      7.29058      0.63769      7.82891        -0.015061     -0.000372      0.005106
     10.44382      6.62038      7.78585         0.004515     -0.002153      0.001091
     14.90602      0.67511      7.87413         0.001804      0.003327     -0.001695
      2.23505      0.04823      7.92122         0.007451      0.008456      0.002179
      5.48709      6.13638      8.04234        -0.001243      0.007956     -0.002430
      9.72231      0.00092      8.00393         0.000266      0.001308      0.004390
     13.02685      6.07109      7.86479         0.006949     -0.002307     -0.010372
      1.75108      3.89516      8.42960        -0.006624      0.000869     -0.004446
      4.95206      9.94899      8.42681         0.003170      0.004860      0.002082
      8.99878      3.76740      8.51226         0.000087      0.000692      0.011115
     12.56267     10.18150      8.18364        -0.003892     -0.002690     -0.001834
      1.15291      9.71080      8.54165        -0.001100      0.001541     -0.000197
      5.44280      3.63396      8.52283        -0.002093     -0.005591     -0.002945
      8.62515      9.64216      8.50458         0.003442      0.002649      0.002527
     13.16251      3.54773      8.51902         0.000077      0.000864     -0.000577
      0.43281      6.59519      8.98704         0.007847     -0.004822     -0.000328
      4.73900      0.52259      8.97886        -0.004470     -0.000678      0.004954
      8.16813      6.62700      9.07801         0.005954     -0.005564      0.010111
     12.28028      0.50147      8.99006        -0.009148     -0.000096      0.000828
     11.40430      8.20590      9.63945        -0.000529      0.002464     -0.000437
     11.06280      5.08443      9.98184         0.001726      0.005752     -0.003499
      9.50647      8.02695     12.04658        -0.012684     -0.012755      0.000050
     10.08848      8.38920     11.70868        -0.013289     -0.008853      0.011439
 -----------------------------------------------------------------------------------
    total drift:                                0.159053     -0.240528     -0.057520


--------------------------------------------------------------------------------------------------------



  FREE ENERGIE OF THE ION-ELECTRON SYSTEM (eV)
  ---------------------------------------------------
  free  energy   TOTEN  =     -1299.42655537 eV

  energy  without entropy=    -1299.42655537  energy(sigma->0) =    -1299.42655537
 


--------------------------------------------------------------------------------------------------------


    POTLOK:  cpu time    0.2315: real time    0.2320


--------------------------------------------------------------------------------------------------------


     LOOP+:  cpu time  377.8535: real time  379.0045
    4ORBIT:  cpu time    0.0000: real time    0.0000

 total amount of memory used by VASP MPI-rank0   172709. kBytes
=======================================================================

   base      :      30000. kBytes
   nonlr-proj:      10859. kBytes
   fftplans  :       9317. kBytes
   grid      :      24886. kBytes
   one-center:        777. kBytes
   wavefun   :      96870. kBytes
 
  
  
 General timing and accounting informations for this job:
 ========================================================
  
                  Total CPU time used (sec):      394.181
                            User time (sec):      378.143
                          System time (sec):       16.038
                         Elapsed time (sec):      395.537
  
                   Maximum memory used (kb):      400176.
                   Average memory used (kb):           0.
  
                          Minor page faults:        98126
                          Major page faults:            0
                 Voluntary context switches:         1092
