 vasp.5.4.4.18Apr17-6-g9f103f2a35 (build Mar 06 2019 14:20:02) complex          
  
 executed on             LinuxIFC date 2021.11.02  09:14:27
 running on  128 total cores
 distrk:  each k-point on  128 cores,    1 groups
 distr:  one band on NCORES_PER_BAND=  16 cores,    8 groups


--------------------------------------------------------------------------------------------------------


 INCAR:
 POTCAR:    PAW_PBE Zr_sv 04Jan2005               
 POTCAR:    PAW_PBE O 08Apr2002                   
 POTCAR:    PAW_PBE H 15Jun2001                   
 POTCAR:    PAW_PBE C 08Apr2002                   
 POTCAR:    PAW_PBE Zr_sv 04Jan2005               
   VRHFIN =Zr: 4s4p5s4d                                                         
   LEXCH  = PE                                                                  
   EATOM  =  1284.2219 eV,   94.3876 Ry                                         
                                                                                
   TITEL  = PAW_PBE Zr_sv 04Jan2005                                             
   LULTRA =        F    use ultrasoft PP ?                                      
   IUNSCR =        1    unscreen: 0-lin 1-nonlin 2-no                           
   RPACOR =    2.200    partial core radius                                     
   POMASS =   91.224; ZVAL   =   12.000    mass and valenz                      
   RCORE  =    2.500    outmost cutoff radius                                   
   RWIGS  =    3.070; RWIGS  =    1.625    wigner-seitz radius (au A)           
   ENMAX  =  229.898; ENMIN  =  172.424 eV                                      
   ICORE  =        3    local potential                                         
   LCOR   =        T    correct aug charges                                     
   LPAW   =        T    paw PP                                                  
   EAUG   =  461.257                                                            
   DEXC   =    0.000                                                            
   RMAX   =    2.561    core radius for proj-oper                               
   RAUG   =    1.300    factor for augmentation sphere                          
   RDEP   =    2.597    radius for radial grids                                 
   RDEPT  =    2.007    core radius for aug-charge                              
                                                                                
   Atomic configuration                                                         
   11 entries                                                                   
     n  l   j            E        occ.                                          
     1  0  0.50    -17820.0161   2.0000                                         
     2  0  0.50     -2467.0882   2.0000                                         
     2  1  1.50     -2199.6095   6.0000                                         
     3  0  0.50      -402.4863   2.0000                                         
     3  1  1.50      -315.3675   6.0000                                         
     3  2  2.50      -172.4472  10.0000                                         
     4  0  0.50       -52.4146   2.0000                                         
     5  0  0.50        -3.8421   1.0000                                         
     4  1  1.50       -30.5054   6.0000                                         
     4  2  2.50        -2.3341   3.0000                                         
     4  3  2.50        -1.3606   0.0000                                         
   Description                                                                  
     l       E           TYP  RCUT    TYP  RCUT                                 
     0    -52.4145962     23  2.200                                             
     0     -3.8421270     23  2.500                                             
     1    -30.5053914     23  2.200                                             
     1     20.4087390     23  2.200                                             
     2     -2.3340816     23  2.500                                             
     2     -0.6120942     23  2.500                                             
     3     -4.0817478     23  2.500                                             
  local pseudopotential read in
  partial core-charges read in
  partial kinetic energy density read in
  atomic valenz-charges read in
  non local Contribution for L=           0  read in
    real space projection operators read in
  non local Contribution for L=           0  read in
    real space projection operators read in
  non local Contribution for L=           1  read in
    real space projection operators read in
  non local Contribution for L=           1  read in
    real space projection operators read in
  non local Contribution for L=           2  read in
    real space projection operators read in
  non local Contribution for L=           2  read in
    real space projection operators read in
    PAW grid and wavefunctions read in
 
   number of l-projection  operators is LMAX  =           6
   number of lm-projection operators is LMMAX =          18
 
 POTCAR:    PAW_PBE O 08Apr2002                   
   VRHFIN =O: s2p4                                                              
   LEXCH  = PE                                                                  
   EATOM  =   432.3788 eV,   31.7789 Ry                                         
                                                                                
   TITEL  = PAW_PBE O 08Apr2002                                                 
   LULTRA =        F    use ultrasoft PP ?                                      
   IUNSCR =        1    unscreen: 0-lin 1-nonlin 2-no                           
   RPACOR =    1.200    partial core radius                                     
   POMASS =   16.000; ZVAL   =    6.000    mass and valenz                      
   RCORE  =    1.520    outmost cutoff radius                                   
   RWIGS  =    1.550; RWIGS  =    0.820    wigner-seitz radius (au A)           
   ENMAX  =  400.000; ENMIN  =  300.000 eV                                      
   ICORE  =        2    local potential                                         
   LCOR   =        T    correct aug charges                                     
   LPAW   =        T    paw PP                                                  
   EAUG   =  605.392                                                            
   DEXC   =    0.000                                                            
   RMAX   =    1.553    core radius for proj-oper                               
   RAUG   =    1.300    factor for augmentation sphere                          
   RDEP   =    1.550    radius for radial grids                                 
   RDEPT  =    1.329    core radius for aug-charge                              
                                                                                
   Atomic configuration                                                         
    4 entries                                                                   
     n  l   j            E        occ.                                          
     1  0  0.50      -514.6923   2.0000                                         
     2  0  0.50       -23.9615   2.0000                                         
     2  1  0.50        -9.0305   4.0000                                         
     3  2  1.50        -9.5241   0.0000                                         
   Description                                                                  
     l       E           TYP  RCUT    TYP  RCUT                                 
     0    -23.9615318     23  1.200                                             
     0     -9.5240782     23  1.200                                             
     1     -9.0304911     23  1.520                                             
     1      8.1634956     23  1.520                                             
     2     -9.5240782      7  1.500                                             
  local pseudopotential read in
  partial core-charges read in
  partial kinetic energy density read in
  kinetic energy density of atom read in
  atomic valenz-charges read in
  non local Contribution for L=           0  read in
    real space projection operators read in
  non local Contribution for L=           0  read in
    real space projection operators read in
  non local Contribution for L=           1  read in
    real space projection operators read in
  non local Contribution for L=           1  read in
    real space projection operators read in
    PAW grid and wavefunctions read in
 
   number of l-projection  operators is LMAX  =           4
   number of lm-projection operators is LMMAX =           8
 
 POTCAR:    PAW_PBE H 15Jun2001                   
   VRHFIN =H: ultrasoft test                                                    
   LEXCH  = PE                                                                  
   EATOM  =    12.4884 eV,    0.9179 Ry                                         
                                                                                
   TITEL  = PAW_PBE H 15Jun2001                                                 
   LULTRA =        F    use ultrasoft PP ?                                      
   IUNSCR =        0    unscreen: 0-lin 1-nonlin 2-no                           
   RPACOR =    0.000    partial core radius                                     
   POMASS =    1.000; ZVAL   =    1.000    mass and valenz                      
   RCORE  =    1.100    outmost cutoff radius                                   
   RWIGS  =    0.700; RWIGS  =    0.370    wigner-seitz radius (au A)           
   ENMAX  =  250.000; ENMIN  =  200.000 eV                                      
   RCLOC  =    0.701    cutoff for local pot                                    
   LCOR   =        T    correct aug charges                                     
   LPAW   =        T    paw PP                                                  
   EAUG   =  400.000                                                            
   RMAX   =    1.123    core radius for proj-oper                               
   RAUG   =    1.200    factor for augmentation sphere                          
   RDEP   =    1.112    radius for radial grids                                 
   RDEPT  =    0.926    core radius for aug-charge                              
                                                                                
   Atomic configuration                                                         
    2 entries                                                                   
     n  l   j            E        occ.                                          
     1  0  0.50        -6.4927   1.0000                                         
     2  1  0.50        -3.4015   0.0000                                         
   Description                                                                  
     l       E           TYP  RCUT    TYP  RCUT                                 
     0     -6.4927494     23  1.100                                             
     0      6.8029130     23  1.100                                             
     1     -4.0817478     23  1.100                                             
  local pseudopotential read in
  atomic valenz-charges read in
  non local Contribution for L=           0  read in
    real space projection operators read in
  non local Contribution for L=           0  read in
    real space projection operators read in
  non local Contribution for L=           1  read in
    real space projection operators read in
    PAW grid and wavefunctions read in
 
   number of l-projection  operators is LMAX  =           3
   number of lm-projection operators is LMMAX =           5
 
 POTCAR:    PAW_PBE C 08Apr2002                   
   VRHFIN =C: s2p2                                                              
   LEXCH  = PE                                                                  
   EATOM  =   147.1560 eV,   10.8157 Ry                                         
                                                                                
   TITEL  = PAW_PBE C 08Apr2002                                                 
   LULTRA =        F    use ultrasoft PP ?                                      
   IUNSCR =        1    unscreen: 0-lin 1-nonlin 2-no                           
   RPACOR =    1.200    partial core radius                                     
   POMASS =   12.011; ZVAL   =    4.000    mass and valenz                      
   RCORE  =    1.500    outmost cutoff radius                                   
   RWIGS  =    1.630; RWIGS  =    0.863    wigner-seitz radius (au A)           
   ENMAX  =  400.000; ENMIN  =  300.000 eV                                      
   ICORE  =        2    local potential                                         
   LCOR   =        T    correct aug charges                                     
   LPAW   =        T    paw PP                                                  
   EAUG   =  644.873                                                            
   DEXC   =    0.000                                                            
   RMAX   =    1.529    core radius for proj-oper                               
   RAUG   =    1.300    factor for augmentation sphere                          
   RDEP   =    1.501    radius for radial grids                                 
   RDEPT  =    1.300    core radius for aug-charge                              
                                                                                
   Atomic configuration                                                         
    4 entries                                                                   
     n  l   j            E        occ.                                          
     1  0  0.50      -273.3789   2.0000                                         
     2  0  0.50       -13.7508   2.0000                                         
     2  1  0.50        -5.2854   2.0000                                         
     3  2  1.50        -5.4423   0.0000                                         
   Description                                                                  
     l       E           TYP  RCUT    TYP  RCUT                                 
     0    -13.7508458     23  1.200                                             
     0     -8.2022199     23  1.200                                             
     1     -5.2854383     23  1.500                                             
     1     34.0145650     23  1.500                                             
     2     -5.4423304      7  1.500                                             
  local pseudopotential read in
  partial core-charges read in
  partial kinetic energy density read in
  atomic valenz-charges read in
  non local Contribution for L=           0  read in
    real space projection operators read in
  non local Contribution for L=           0  read in
    real space projection operators read in
  non local Contribution for L=           1  read in
    real space projection operators read in
  non local Contribution for L=           1  read in
    real space projection operators read in
    PAW grid and wavefunctions read in
 
   number of l-projection  operators is LMAX  =           4
   number of lm-projection operators is LMMAX =           8
 
 Optimization of the real space projectors (new method)

 maximal supplied QI-value         = 15.12
 optimisation between [QCUT,QGAM] = [ 11.34, 22.83] = [ 36.00,145.93] Ry 
 Optimized for a Real-space Cutoff    1.47 Angstroem

   l    n(q)    QCUT    max X(q) W(low)/X(q) W(high)/X(q)  e(spline) 
   0     10    11.338    12.107    0.38E-04    0.13E-04    0.27E-07
   0     10    11.338     9.948    0.69E-04    0.30E-04    0.38E-07
   1     10    11.338     3.563    0.26E-04    0.18E-04    0.40E-07
   1     10    11.338     4.524    0.25E-03    0.39E-04    0.44E-06
   2      9    11.338    87.261    0.26E-03    0.91E-05    0.26E-06
   2      9    11.338    70.950    0.25E-03    0.91E-05    0.25E-06
 Optimization of the real space projectors (new method)

 maximal supplied QI-value         = 24.76
 optimisation between [QCUT,QGAM] = [ 11.39, 22.77] = [ 36.31,145.25] Ry 
 Optimized for a Real-space Cutoff    1.00 Angstroem

   l    n(q)    QCUT    max X(q) W(low)/X(q) W(high)/X(q)  e(spline) 
   0      7    11.387    20.381    0.39E-03    0.13E-02    0.15E-06
   0      7    11.387    15.268    0.42E-03    0.14E-02    0.17E-06
   1      6    11.387     5.964    0.41E-03    0.11E-02    0.17E-06
   1      6    11.387     5.382    0.39E-03    0.87E-03    0.15E-06
 Optimization of the real space projectors (new method)

 maximal supplied QI-value         = 34.20
 optimisation between [QCUT,QGAM] = [ 11.29, 22.57] = [ 35.68,142.71] Ry 
 Optimized for a Real-space Cutoff    1.16 Angstroem

   l    n(q)    QCUT    max X(q) W(low)/X(q) W(high)/X(q)  e(spline) 
   0      8    11.287    19.460    0.40E-03    0.73E-03    0.16E-06
   0      8    11.287    12.209    0.38E-03    0.70E-03    0.15E-06
   1      7    11.287     4.655    0.22E-03    0.25E-04    0.22E-06
 Optimization of the real space projectors (new method)

 maximal supplied QI-value         = 25.13
 optimisation between [QCUT,QGAM] = [ 11.31, 22.87] = [ 35.82,146.48] Ry 
 Optimized for a Real-space Cutoff    1.00 Angstroem

   l    n(q)    QCUT    max X(q) W(low)/X(q) W(high)/X(q)  e(spline) 
   0      7    11.310   115.676    0.43E-03    0.13E-02    0.19E-06
   0      7    11.310    87.132    0.43E-03    0.13E-02    0.18E-06
   1      6    11.310     4.429    0.42E-03    0.74E-03    0.11E-06
   1      6    11.310     2.733    0.34E-03    0.55E-03    0.92E-07
  PAW_PBE Zr_sv 04Jan2005               :
 energy of atom  1       EATOM=-1284.2219
 kinetic energy error for atom=    0.0049 (will be added to EATOM!!)
  PAW_PBE O 08Apr2002                   :
 energy of atom  2       EATOM= -432.3788
 kinetic energy error for atom=    0.0224 (will be added to EATOM!!)
  PAW_PBE H 15Jun2001                   :
 energy of atom  3       EATOM=  -12.4884
 kinetic energy error for atom=    0.0020 (will be added to EATOM!!)
  PAW_PBE C 08Apr2002                   :
 energy of atom  4       EATOM= -147.1560
 kinetic energy error for atom=    0.0076 (will be added to EATOM!!)
 
 
 POSCAR: CONTCAR                                 
  positions in direct lattice
  velocities in cartesian coordinates
  No initial velocities read in
 exchange correlation table for  LEXCH =        8
   RHO(1)=    0.500       N(1)  =     2000
   RHO(2)=  100.500       N(2)  =     4000
 


--------------------------------------------------------------------------------------------------------


 ion  position               nearest neighbor table
   1  0.088  0.321  0.038-  78 2.10  62 2.10  50 2.18  74 2.19  61 2.26  54 2.30  16 3.37   6 3.50
                            12 3.52  13 3.65
   2  0.338  0.821  0.038-  79 2.10  63 2.10  51 2.18  75 2.19  58 2.26  55 2.30  13 3.37   7 3.50
                             9 3.52  14 3.65
   3  0.588  0.321  0.038-  80 2.10  64 2.10  52 2.18  76 2.19  59 2.26  56 2.30  14 3.37   8 3.50
                            10 3.52  15 3.65
   4  0.838  0.821  0.038-  81 2.10  65 2.10  53 2.18  77 2.19  60 2.26  57 2.30  15 3.37   5 3.50
                            11 3.52  16 3.65
   5  0.070  0.834  0.049-  82 2.07  66 2.10  65 2.18  58 2.19  57 2.22  70 2.30  12 3.37  17 3.47
                             4 3.50  16 3.52   9 3.65
   6  0.320  0.334  0.049-  83 2.06  67 2.10  62 2.18  59 2.19  54 2.22  71 2.30   9 3.37  18 3.48
                             1 3.50  13 3.52  10 3.65
   7  0.570  0.834  0.049-  84 2.06  68 2.10  63 2.18  60 2.19  55 2.22  72 2.30  10 3.37  19 3.48
                             2 3.50  14 3.52  11 3.65
   8  0.820  0.334  0.049-  85 2.08  69 2.10  64 2.18  61 2.19  56 2.22  73 2.30  11 3.37   3 3.50
                            20 3.51  15 3.52  12 3.65
   9  0.238  0.068  0.057-  62 2.10  86 2.16  67 2.18  70 2.19  75 2.22  58 2.30   6 3.37  17 3.48
                            14 3.50  22 3.52   2 3.52   5 3.65
  10  0.488  0.568  0.057-  63 2.10  87 2.18  68 2.18  71 2.19  76 2.22  59 2.30   7 3.37  18 3.48
                            15 3.50   3 3.52  23 3.53   6 3.65
  11  0.738  0.068  0.057-  64 2.10  69 2.18  88 2.18  72 2.19  77 2.22  60 2.30   8 3.37  19 3.47
                            16 3.50   4 3.52  24 3.52   7 3.65
  12  0.988  0.568  0.057-  65 2.10  66 2.18  89 2.18  73 2.19  74 2.22  61 2.30   5 3.37  13 3.50
                             1 3.52  21 3.53  20 3.53   8 3.65
  13  0.220  0.581  0.068-  51 2.10  66 2.10  79 2.18  54 2.19  71 2.26  90 2.26  74 2.30   2 3.37
                            21 3.49  26 3.50  12 3.50  18 3.50   6 3.52   1 3.65
  14  0.470  0.081  0.068-  52 2.10  67 2.10  80 2.18  55 2.19  72 2.26  91 2.27  75 2.30   3 3.37
                            27 3.48  22 3.49   9 3.50  19 3.51   7 3.52   2 3.65
  15  0.720  0.581  0.068-  53 2.10  68 2.10  81 2.18  56 2.19  73 2.26  92 2.26  76 2.30   4 3.37
                            23 3.49  28 3.50  10 3.50   8 3.52  20 3.53   3 3.65
  16  0.970  0.081  0.068-  50 2.10  69 2.10  78 2.18  57 2.19  70 2.26  93 2.27  77 2.30   1 3.37
                            24 3.50  11 3.50  17 3.50  25 3.50   5 3.52   4 3.65
  17  0.106  0.983  0.171-  94 2.09 110 2.13  82 2.16  70 2.19 106 2.20  93 2.23  86 2.30  32 3.39
                             5 3.47   9 3.48  16 3.50  22 3.52  25 3.54  29 3.66
  18  0.356  0.484  0.171-  95 2.09 111 2.14  83 2.16  71 2.19 107 2.19  90 2.23  87 2.30  29 3.37
                             6 3.48  10 3.48  13 3.50  23 3.52  26 3.53  30 3.65
  19  0.608  0.984  0.171-  96 2.09 112 2.15  84 2.18  72 2.19 108 2.20  91 2.23  88 2.28  30 3.39
                            11 3.47   7 3.48  24 3.50  14 3.51  27 3.52  31 3.70
  20  0.855  0.483  0.173-  97 2.10 113 2.11  85 2.18 109 2.20  92 2.23  73 2.24  89 2.33  31 3.32
                            28 3.51   8 3.51  12 3.53  21 3.53  15 3.53  32 3.65
  21  0.089  0.495  0.183- 114 2.09  98 2.11  97 2.17  90 2.18  74 2.24  89 2.27 102 2.29  25 3.37
                            13 3.49  32 3.51  12 3.53  20 3.53  26 3.63  33 3.64
  22  0.339  0.995  0.182- 115 2.10  99 2.11  94 2.17  91 2.19  75 2.23 103 2.26  86 2.28  26 3.38
                            14 3.49  29 3.51   9 3.52  17 3.52  34 3.61  27 3.62
  23  0.589  0.493  0.182- 100 2.08 116 2.12  95 2.17  92 2.18  76 2.23  87 2.29 104 2.31  27 3.37
                            15 3.49  35 3.51  18 3.52  10 3.53  30 3.56  28 3.69
  24  0.839  0.996  0.183- 117 2.10 101 2.11  96 2.18  93 2.18  77 2.25  88 2.26 105 2.28  28 3.37
                            19 3.50  16 3.50  11 3.52  31 3.54  36 3.62  25 3.64
  25  0.005  0.230  0.191-  78 2.10  97 2.10 121 2.17  98 2.19 105 2.21 106 2.29  93 2.30  21 3.37
                            37 3.45  16 3.50  17 3.54  29 3.55  24 3.64  36 3.65
  26  0.254  0.730  0.191-  94 2.10  79 2.10 102 2.18  99 2.20 118 2.20 107 2.29  90 2.29  22 3.38
                            38 3.46  13 3.50  18 3.53  30 3.54  21 3.63  33 3.65
  27  0.504  0.229  0.191-  80 2.09  95 2.11 119 2.18 100 2.19 103 2.19  91 2.29 108 2.29  23 3.37
                            39 3.47  14 3.48  19 3.52  31 3.59  22 3.62  34 3.66
  28  0.757  0.730  0.191-  81 2.08  96 2.11 101 2.16 120 2.22 104 2.23 109 2.25  92 2.30  24 3.37
                            15 3.50  35 3.50  32 3.50  20 3.51  40 3.54  23 3.69
  29  0.240  0.242  0.201-  98 2.10  83 2.10 122 2.19 103 2.21 111 2.21  86 2.23 106 2.28  18 3.37
                            37 3.41  42 3.50  22 3.51  25 3.55  34 3.64  17 3.66
  30  0.488  0.743  0.200-  99 2.08  84 2.09 112 2.19 123 2.21  87 2.22 104 2.25 107 2.29  19 3.39
                            38 3.44  43 3.49  35 3.51  26 3.54  23 3.56  18 3.65
  31  0.741  0.246  0.204-  85 2.11 100 2.12 113 2.12 105 2.21 124 2.24  88 2.29 108 2.31  20 3.32
                            39 3.44  24 3.54  44 3.56  27 3.59  36 3.63  19 3.70
  32  0.989  0.741  0.202- 101 2.11  82 2.13 110 2.19 125 2.21 102 2.21  89 2.22 109 2.27  17 3.39
                            41 3.47  40 3.49  28 3.50  21 3.51  33 3.64  20 3.65
  33  0.123  0.641  0.314- 142 2.02 126 2.16 138 2.17 114 2.21 125 2.25 118 2.37 102 2.41  45 3.23
                            41 3.48  38 3.54  32 3.64  21 3.64  26 3.65  46 3.71
  34  0.372  0.139  0.313- 143 2.02 127 2.14 139 2.19 115 2.20 122 2.24 119 2.35 103 2.43  46 3.23
                            42 3.49  39 3.53  22 3.61  29 3.64  47 3.66  27 3.66
  35  0.624  0.647  0.305- 140 2.15 128 2.15 116 2.19 123 2.19 104 2.21 120 2.26 144 2.26  49 3.29
                            47 3.43  43 3.43  28 3.50  23 3.51  30 3.51  40 3.55  48 3.71
  36  0.875  0.139  0.314- 145 2.03 129 2.13 141 2.13 117 2.22 124 2.29 105 2.39 121 2.43  48 3.22
                            44 3.43  37 3.54  24 3.62  31 3.63  25 3.65  45 3.75
  37  0.110  0.161  0.312- 130 2.09 121 2.14 106 2.16 122 2.16 129 2.16 134 2.17  29 3.41  25 3.45
                            41 3.45  45 3.52  36 3.54  42 3.58
  38  0.359  0.660  0.313- 131 2.10 126 2.16 135 2.16 107 2.16 118 2.16 123 2.17  30 3.44  42 3.44
                            26 3.46  46 3.53  33 3.54  43 3.58
  39  0.606  0.157  0.313- 136 2.09 132 2.11 108 2.15 127 2.15 124 2.18 119 2.21  43 3.43  31 3.44
                            47 3.46  27 3.47  34 3.53  44 3.68
  40  0.859  0.662  0.318- 133 2.11 125 2.17 120 2.20 137 2.21 128 2.24 109 2.26 146 2.26  32 3.49
                            48 3.49  44 3.52  28 3.54  35 3.55  41 3.59  49 3.68
  41  0.027  0.889  0.324- 110 2.05 138 2.14 129 2.15 137 2.18 130 2.20 125 2.31  37 3.45  32 3.47
                            33 3.48  46 3.50  40 3.59
  42  0.276  0.389  0.325- 111 2.06 139 2.13 126 2.14 131 2.24 134 2.26 122 2.29  38 3.44  34 3.49
                            47 3.50  29 3.50  37 3.58
  43  0.525  0.887  0.325- 112 2.06 127 2.14 140 2.15 132 2.18 135 2.25 123 2.30  35 3.43  39 3.43
                            30 3.49  48 3.55  38 3.58
  44  0.781  0.383  0.334- 147 2.09 141 2.11 133 2.16 113 2.23 124 2.26 128 2.27 136 2.58  49 3.27
                            36 3.43  45 3.46  40 3.52  31 3.56  39 3.68
  45  0.011  0.407  0.336- 142 2.03 114 2.07 133 2.16 141 2.23 134 2.29 121 2.31  33 3.23  44 3.46
                            37 3.52  36 3.75
  46  0.259  0.907  0.336- 143 2.02 115 2.07 130 2.15 138 2.27 118 2.29 135 2.31  34 3.23  41 3.50
                            38 3.53  33 3.71
  47  0.507  0.400  0.334- 116 2.07 136 2.14 131 2.17 144 2.20 119 2.22 139 2.24  35 3.43  39 3.46
                            42 3.50  34 3.66  49 3.89
  48  0.760  0.908  0.336- 145 2.01 117 2.05 132 2.16 137 2.26 120 2.31 140 2.36  36 3.22  40 3.49
                            43 3.55  35 3.71
  49  0.698  0.549  0.422- 147 1.93 144 2.10 146 2.16 167 2.31 128 2.35  44 3.27  35 3.29  40 3.68
                            47 3.89
  50  0.024  0.173  0.000-  16 2.10   1 2.18
  51  0.274  0.673  0.000-  13 2.10   2 2.18
  52  0.524  0.173  0.000-  14 2.10   3 2.18
  53  0.774  0.673  0.000-  15 2.10   4 2.18
  54  0.215  0.432  0.016-  13 2.19   6 2.22   1 2.30
  55  0.465  0.932  0.016-  14 2.19   7 2.22   2 2.30
  56  0.715  0.432  0.016-  15 2.19   8 2.22   3 2.30
  57  0.965  0.932  0.016-  16 2.19   5 2.22   4 2.30
  58  0.207  0.891  0.025-   5 2.19   2 2.26   9 2.30
  59  0.457  0.391  0.025-   6 2.19   3 2.26  10 2.30
  60  0.707  0.891  0.025-   7 2.19   4 2.26  11 2.30
  61  0.957  0.391  0.025-   8 2.19   1 2.26  12 2.30
  62  0.197  0.226  0.044-   9 2.10   1 2.10   6 2.18
  63  0.447  0.726  0.044-  10 2.10   2 2.10   7 2.18
  64  0.697  0.226  0.044-  11 2.10   3 2.10   8 2.18
  65  0.947  0.726  0.044-  12 2.10   4 2.10   5 2.18
  66  0.111  0.675  0.062-   5 2.10  13 2.10  12 2.18
  67  0.361  0.175  0.062-   6 2.10  14 2.10   9 2.18
  68  0.611  0.675  0.062-   7 2.10  15 2.10  10 2.18
  69  0.861  0.175  0.062-   8 2.10  16 2.10  11 2.18
  70  0.101  0.010  0.081-  17 2.19   9 2.19  16 2.26   5 2.30
  71  0.351  0.510  0.081-  18 2.19  10 2.19  13 2.26   6 2.30
  72  0.601  0.010  0.081-  19 2.19  11 2.19  14 2.26   7 2.30
  73  0.851  0.510  0.081-  12 2.19  20 2.24  15 2.26   8 2.30
  74  0.093  0.470  0.090-   1 2.19  12 2.22  21 2.24  13 2.30
  75  0.343  0.970  0.090-   2 2.19   9 2.22  22 2.23  14 2.30
  76  0.593  0.470  0.090-   3 2.19  10 2.22  23 2.23  15 2.30
  77  0.843  0.970  0.090-   4 2.19  11 2.22  24 2.25  16 2.30
  78  0.034  0.229  0.106-   1 2.10  25 2.10  16 2.18
  79  0.284  0.729  0.106-   2 2.10  26 2.10  13 2.18
  80  0.534  0.229  0.106-  27 2.09   3 2.10  14 2.18
  81  0.784  0.729  0.106-  28 2.08   4 2.10  15 2.18
  82  0.046  0.833  0.134-   5 2.07  32 2.13  17 2.16
  83  0.297  0.334  0.134-   6 2.06  29 2.10  18 2.16
  84  0.547  0.834  0.133-   7 2.06  30 2.09  19 2.18
  85  0.796  0.333  0.134-   8 2.08  31 2.11  20 2.18
  86  0.231  0.093  0.146-   9 2.16  29 2.23  22 2.28  17 2.30
  87  0.482  0.593  0.147-  10 2.18  30 2.22  23 2.29  18 2.30
  88  0.732  0.094  0.147-  11 2.18  24 2.26  19 2.28  31 2.29
  89  0.982  0.593  0.147-  12 2.18  32 2.22  21 2.27  20 2.33
  90  0.226  0.552  0.161-  21 2.18  18 2.23  13 2.26  26 2.29
  91  0.476  0.051  0.161-  22 2.19  19 2.23  14 2.27  27 2.29
  92  0.725  0.552  0.161-  23 2.18  20 2.23  15 2.26  28 2.30
  93  0.975  0.052  0.161-  24 2.18  17 2.23  16 2.27  25 2.30
  94  0.215  0.890  0.181-  17 2.09  26 2.10  22 2.17
  95  0.465  0.390  0.181-  18 2.09  27 2.11  23 2.17
  96  0.715  0.890  0.181-  19 2.09  28 2.11  24 2.18
  97  0.965  0.391  0.182-  20 2.10  25 2.10  21 2.17
  98  0.130  0.335  0.192-  29 2.10  21 2.11  25 2.19
  99  0.379  0.835  0.193-  30 2.08  22 2.11  26 2.20
 100  0.628  0.335  0.194-  23 2.08  31 2.12  27 2.19
 101  0.880  0.837  0.194-  24 2.11  32 2.11  28 2.16
 102  0.118  0.671  0.215-  26 2.18  32 2.21  21 2.29  33 2.41
 103  0.367  0.169  0.213-  27 2.19  29 2.21  22 2.26  34 2.43
 104  0.619  0.671  0.214-  35 2.21  28 2.23  30 2.25  23 2.31
 105  0.868  0.171  0.216-  25 2.21  31 2.21  24 2.28  36 2.39
 106  0.116  0.130  0.224-  37 2.16  17 2.20  29 2.28  25 2.29
 107  0.364  0.631  0.224-  38 2.16  18 2.19  26 2.29  30 2.29
 108  0.615  0.131  0.225-  39 2.15  19 2.20  27 2.29  31 2.31
 109  0.864  0.632  0.225-  20 2.20  28 2.25  40 2.26  32 2.27
 110  0.047  0.893  0.240-  41 2.05  17 2.13  32 2.19
 111  0.297  0.396  0.241-  42 2.06  18 2.14  29 2.21
 112  0.547  0.893  0.240-  43 2.06  19 2.15  30 2.19
 113  0.796  0.394  0.241-  20 2.11  31 2.12  44 2.23
 114  0.069  0.492  0.269-  45 2.07  21 2.09  33 2.21
 115  0.315  0.992  0.268-  46 2.07  22 2.10  34 2.20
 116  0.562  0.494  0.269-  47 2.07  23 2.12  35 2.19
 117  0.812  0.994  0.269-  48 2.05  24 2.10  36 2.22
 118  0.252  0.750  0.283-  38 2.16  26 2.20  46 2.29  33 2.37
 119  0.497  0.249  0.281-  27 2.18  39 2.21  47 2.22  34 2.35
 120  0.750  0.750  0.283-  40 2.20  28 2.22  35 2.26  48 2.31
 121  0.005  0.251  0.282-  37 2.14  25 2.17  45 2.31  36 2.43
 122  0.246  0.214  0.291-  37 2.16  29 2.19  34 2.24  42 2.29
 123  0.495  0.712  0.290-  38 2.17  35 2.19  30 2.21  43 2.30
 124  0.744  0.215  0.296-  39 2.18  31 2.24  44 2.26  36 2.29
 125  0.995  0.712  0.293-  40 2.17  32 2.21  33 2.25  41 2.31
 126  0.239  0.554  0.329-  42 2.14  38 2.16  33 2.16
 127  0.486  0.052  0.327-  34 2.14  43 2.14  39 2.15
 128  0.733  0.553  0.327-  35 2.15  40 2.24  44 2.27  49 2.35
 129  0.990  0.056  0.329-  36 2.13  41 2.15  37 2.16
 130  0.148  0.004  0.330-  37 2.09  46 2.15  41 2.20
 131  0.399  0.504  0.334-  38 2.10  47 2.17  42 2.24
 132  0.644  1.000  0.334-  39 2.11  48 2.16  43 2.18
 133  0.896  0.501  0.329-  40 2.11  44 2.16  45 2.16
 134  0.138  0.321  0.352-  37 2.17  42 2.26  45 2.29
 135  0.387  0.820  0.350-  38 2.16  43 2.25  46 2.31
 136  0.619  0.310  0.353-  39 2.09  47 2.14  44 2.58
 137  0.890  0.834  0.346-  41 2.18  40 2.21  48 2.26
 138  0.132  0.800  0.356-  41 2.14  33 2.17  46 2.27
 139  0.381  0.299  0.355-  42 2.13  34 2.19  47 2.24
 140  0.629  0.793  0.355-  35 2.15  43 2.15  48 2.36
 141  0.891  0.294  0.356-  44 2.11  36 2.13  45 2.23
 142  0.066  0.545  0.375-  33 2.02  45 2.03
 143  0.316  0.042  0.375-  46 2.02  34 2.02
 144  0.577  0.540  0.378-  49 2.10  47 2.20  35 2.26
 145  0.816  0.042  0.375-  48 2.01  36 2.03
 146  0.806  0.671  0.406- 148 0.97  49 2.16  40 2.26
 147  0.756  0.415  0.418-  49 1.93  44 2.09
 148  0.838  0.721  0.432- 146 0.97
 149  0.349  0.598  0.449- 164 1.11
 150  0.451  0.770  0.453- 163 1.11
 151  0.258  0.782  0.511- 162 1.10
 152  0.432  0.783  0.525- 163 1.10
 153  0.206  0.680  0.465- 162 1.10
 154  0.285  0.785  0.439- 162 1.10
 155  0.506  0.582  0.471- 165 1.11
 156  0.330  0.605  0.521- 164 1.10
 157  0.496  0.604  0.543- 165 1.10
 158  0.614  0.753  0.465- 166 1.11
 159  0.609  0.765  0.538- 166 1.11
 160  0.739  0.662  0.523- 167 1.11
 161  0.655  0.561  0.544- 167 1.10
 162  0.269  0.729  0.474- 153 1.10 151 1.10 154 1.10 164 1.53
 163  0.436  0.722  0.491- 152 1.10 150 1.11 165 1.53 164 1.53
 164  0.345  0.657  0.484- 156 1.10 149 1.11 162 1.53 163 1.53
 165  0.509  0.647  0.503- 157 1.10 155 1.11 163 1.53 166 1.53
 166  0.604  0.704  0.504- 159 1.11 158 1.11 165 1.53 167 1.55
 167  0.674  0.620  0.510- 161 1.10 160 1.11 166 1.55  49 2.31
 
  Warning from LATTYP: Monoclinic adjustement (A1->A3, A2->A1, A3->A2)!
  Warning from LATTYP: Got some problem with cell dimensions!
  Tried to take original basis but could not verify dimensions!
  LATTYP: Found a simple monoclinic cell.
 ALAT       =    18.5584556648
 B/A-ratio  =     1.2917238965
 C/A-ratio  =     1.7011970181
 COS(beta)  =    -0.9496615564
  
  Lattice vectors:
  
 A1 = ( -14.0305058395, -12.1474763861,   0.0000000000)
 A2 = (   0.0000000000,   0.0000000000, -23.9724006653)
 A3 = (  29.1411063110,  12.1474763861,   0.0000000000)


Analysis of symmetry for initial positions (statically):
=====================================================================
 Subroutine PRICEL returns:
 Original cell was already a primitive cell.
 

 Routine SETGRP: Setting up the symmetry group for a 
 simple monoclinic supercell.


 Subroutine GETGRP returns: Found  1 space group operations
 (whereof  1 operations were pure point group operations)
 out of a pool of  4 trial point group operations.


The static configuration has the point symmetry C_1 .


Analysis of symmetry for dynamics (positions and initial velocities):
=====================================================================
 Subroutine PRICEL returns:
 Original cell was already a primitive cell.
 

 Routine SETGRP: Setting up the symmetry group for a 
 simple monoclinic supercell.


 Subroutine GETGRP returns: Found  1 space group operations
 (whereof  1 operations were pure point group operations)
 out of a pool of  4 trial point group operations.


The dynamic configuration has the point symmetry C_1 .


Analysis of constrained symmetry for selective dynamics:
=====================================================================
 Subroutine PRICEL returns:
 Original cell was already a primitive cell.
 

 Routine SETGRP: Setting up the symmetry group for a 
 simple monoclinic supercell.


 Subroutine GETGRP returns: Found  1 space group operations
 (whereof  1 operations were pure point group operations)
 out of a pool of  4 trial point group operations.


The constrained configuration has the point symmetry C_1 .


Analysis of structural, dynamic, and magnetic symmetry:
=====================================================================
 Subroutine PRICEL returns:
 Original cell was already a primitive cell.
 

 Routine SETGRP: Setting up the symmetry group for a 
 simple monoclinic supercell.


 Subroutine GETGRP returns: Found  1 space group operations
 (whereof  1 operations were pure point group operations)
 out of a pool of  4 trial point group operations.


The magnetic configuration has the point symmetry C_1 .


 Subroutine INISYM returns: Found  1 space group operations
 (whereof  1 operations are pure point group operations),
 and found     1 'primitive' translations

 
 
 KPOINTS: Monkhorst Pack                          

Automatic generation of k-mesh.
Space group operators:
 irot       det(A)        alpha          n_x          n_y          n_z        tau_x        tau_y        tau_z
    1     1.000000     0.000000     1.000000     0.000000     0.000000     0.000000     0.000000     0.000000
 
 Subroutine IBZKPT returns following result:
 ===========================================
 
 Found      2 irreducible k-points:
 
 Following reciprocal coordinates:
            Coordinates               Weight
  0.250000  0.250000  0.000000      2.000000
 -0.250000  0.250000  0.000000      2.000000
 
 Following cartesian coordinates:
            Coordinates               Weight
  0.016545  0.022051  0.000000      2.000000
 -0.016545  0.019109  0.000000      2.000000
 


--------------------------------------------------------------------------------------------------------




 Dimension of arrays:
   k-points           NKPTS =      2   k-points in BZ     NKDIM =      2   number of bands    NBANDS=    640
   number of dos      NEDOS =    301   number of ions     NIONS =    167
   non local maximal  LDIM  =      6   non local SUM 2l+1 LMDIM =     18
   total plane-waves  NPLWV = 823200
   max r-space proj   IRMAX =   2561   max aug-charges    IRDMAX=   7978
   dimension x,y,z NGX =    84 NGY =   70 NGZ =  140
   dimension x,y,z NGXF=   168 NGYF=  140 NGZF=  280
   support grid    NGXF=   168 NGYF=  140 NGZF=  280
   ions per type =              49  98  14   6
   NGX,Y,Z   is equivalent  to a cutoff of   9.24,  9.54,  9.71 a.u.
   NGXF,Y,Z  is equivalent  to a cutoff of  18.48, 19.08, 19.42 a.u.

 SYSTEM =  mZrO2_n111                              
 POSCAR =  CONTCAR                                 

 Startparameter for this run:
   NWRITE =      2    write-flag & timer
   PREC   = normal    normal or accurate (medium, high low for compatibility)
   ISTART =      1    job   : 0-new  1-cont  2-samecut
   ICHARG =      1    charge: 1-file 2-atom 10-const
   ISPIN  =      2    spin polarized calculation?
   LNONCOLLINEAR =      F non collinear calculations
   LSORBIT =      F    spin-orbit coupling
   INIWAV =      1    electr: 0-lowe 1-rand  2-diag
   LASPH  =      F    aspherical Exc in radial PAW
   METAGGA=      F    non-selfconsistent MetaGGA calc.

 Electronic Relaxation 1
   ENCUT  =  500.0 eV  36.75 Ry    6.06 a.u.  27.55 22.24 43.71*2*pi/ulx,y,z
   ENINI  =  500.0     initial cutoff
   ENAUG  =  644.9 eV  augmentation charge cutoff
   NELM   =    300;   NELMIN=  2; NELMDL=  0     # of ELM steps 
   EDIFF  = 0.1E-05   stopping-criterion for ELM
   LREAL  =      T    real-space projection
   NLSPLINE    = F    spline interpolate recip. space projectors
   LCOMPAT=      F    compatible to vasp.4.4
   GGA_COMPAT  = T    GGA compatible to vasp.4.4-vasp.4.6
   LMAXPAW     = -100 max onsite density
   LMAXMIX     =    2 max onsite mixed and CHGCAR
   VOSKOWN=      0    Vosko Wilk Nusair interpolation
   ROPT   =   -0.00050  -0.00050  -0.00050  -0.00050
 Ionic relaxation
   EDIFFG = -.2E-01   stopping-criterion for IOM
   NSW    =      0    number of steps for IOM
   NBLOCK =      1;   KBLOCK =      1    inner block; outer block 
   IBRION =     -1    ionic relax: 0-MD 1-quasi-New 2-CG
   NFREE  =      1    steps in history (QN), initial steepest desc. (CG)
   ISIF   =      2    stress and relaxation
   IWAVPR =     10    prediction:  0-non 1-charg 2-wave 3-comb
   ISYM   =      2    0-nonsym 1-usesym 2-fastsym
   LCORR  =      T    Harris-Foulkes like correction to forces

   POTIM  = 0.5000    time-step for ionic-motion
   TEIN   =    0.0    initial temperature
   TEBEG  =    0.0;   TEEND  =   0.0 temperature during run
   SMASS  =  -3.00    Nose mass-parameter (am)
   estimated Nose-frequenzy (Omega)   =  0.10E-29 period in steps =****** mass=  -0.522E-26a.u.
   SCALEE = 1.0000    scale energy and forces
   NPACO  =    256;   APACO  = 16.0  distance and # of slots for P.C.
   PSTRESS=    0.0 pullay stress

  Mass of Ions in am
   POMASS =  91.22 16.00  1.00 12.01
  Ionic Valenz
   ZVAL   =  12.00  6.00  1.00  4.00
  Atomic Wigner-Seitz radii
   RWIGS  =  -1.00 -1.00 -1.00 -1.00
  virtual crystal weights 
   VCA    =   1.00  1.00  1.00  1.00
   NELECT =    1214.0000    total number of electrons
   NUPDOWN=      -1.0000    fix difference up-down

 DOS related values:
   EMIN   =  10.00;   EMAX   =-10.00  energy-range for DOS
   EFERMI =   0.00
   ISMEAR =     0;   SIGMA  =   0.05  broadening in eV -4-tet -1-fermi 0-gaus

 Electronic relaxation 2 (details)
   IALGO  =     38    algorithm
   LDIAG  =      T    sub-space diagonalisation (order eigenvalues)
   LSUBROT=      F    optimize rotation matrix (better conditioning)
   TURBO    =      0    0=normal 1=particle mesh
   IRESTART =      0    0=no restart 2=restart with 2 vectors
   NREBOOT  =      0    no. of reboots
   NMIN     =      0    reboot dimension
   EREF     =   0.00    reference energy to select bands
   IMIX   =      4    mixing-type and parameters
     AMIX     =   0.40;   BMIX     =  1.00
     AMIX_MAG =   1.60;   BMIX_MAG =  1.00
     AMIN     =   0.10
     WC   =   100.;   INIMIX=   1;  MIXPRE=   1;  MAXMIX= -45

 Intra band minimization:
   WEIMIN = 0.0000     energy-eigenvalue tresh-hold
   EBREAK =  0.39E-09  absolut break condition
   DEPER  =   0.30     relativ break condition  

   TIME   =   0.40     timestep for ELM

  volume/ion in A,a.u.               =      26.35       177.81
  Fermi-wavevector in a.u.,A,eV,Ry     =   1.065748  2.013972 15.453760  1.135819
  Thomas-Fermi vector in A             =   2.201310
 
 Write flags
   LWAVE        =      F    write WAVECAR
   LDOWNSAMPLE  =      F    k-point downsampling of WAVECAR
   LCHARG       =      F    write CHGCAR
   LVTOT        =      F    write LOCPOT, total local potential
   LVHAR        =      F    write LOCPOT, Hartree potential only
   LELF         =      F    write electronic localiz. function (ELF)
   LORBIT       =      0    0 simple, 1 ext, 2 COOP (PROOUT), +10 PAW based schemes


 Dipole corrections
   LMONO  =      F    monopole corrections only (constant potential shift)
   LDIPOL =      F    correct potential (dipole corrections)
   IDIPOL =      3    1-x, 2-y, 3-z, 4-all directions 
   EPSILON=  1.0000000 bulk dielectric constant

 LDA+U is selected, type is set to LDAUTYPE =  2
   angular momentum for each species LDAUL =     2   -1   -1   -1
   U (eV)           for each species LDAUU =   4.0  0.0  0.0  0.0
   J (eV)           for each species LDAUJ =   0.0  0.0  0.0  0.0
 Exchange correlation treatment:
   GGA     =    --    GGA type
   LEXCH   =     8    internal setting for exchange type
   VOSKOWN=      0    Vosko Wilk Nusair interpolation
   LHFCALC =     F    Hartree Fock is set to
   LHFONE  =     F    Hartree Fock one center treatment
   AEXX    =    0.0000 exact exchange contribution

 Linear response parameters
   LEPSILON=     F    determine dielectric tensor
   LRPA    =     F    only Hartree local field effects (RPA)
   LNABLA  =     F    use nabla operator in PAW spheres
   LVEL    =     F    velocity operator in full k-point grid
   LINTERFAST=   F  fast interpolation
   KINTER  =     0    interpolate to denser k-point grid
   CSHIFT  =0.1000    complex shift for real part using Kramers Kronig
   OMEGAMAX=  -1.0    maximum frequency
   DEG_THRESHOLD= 0.2000000E-02 threshold for treating states as degnerate
   RTIME   =   -0.100 relaxation time in fs
  (WPLASMAI=    0.000 imaginary part of plasma frequency in eV, 0.658/RTIME)
   DFIELD  = 0.0000000 0.0000000 0.0000000 field for delta impulse in time
 
 Orbital magnetization related:
   ORBITALMAG=     F  switch on orbital magnetization
   LCHIMAG   =     F  perturbation theory with respect to B field
   DQ        =  0.001000  dq finite difference perturbation B field
   LLRAUG    =     F  two centre corrections for induced B field



--------------------------------------------------------------------------------------------------------


 Static calculation
 charge density and potential will be updated during run
 spin polarized calculation
 Variant of blocked Davidson
 Davidson routine will perform the subspace rotation
 perform sub-space diagonalisation
    after iterative eigenvector-optimisation
 modified Broyden-mixing scheme, WC =      100.0
 initial mixing is a Kerker type mixing with AMIX =  0.4000 and BMIX =      1.0000
 Hartree-type preconditioning will be used
 using additional bands           33
 real space projection scheme for non local part
 use partial core corrections
 calculate Harris-corrections to forces 
   (improved forces if not selfconsistent)
 use gradient corrections 
 use of overlap-Matrix (Vanderbilt PP)
 Gauss-broadening in eV      SIGMA  =   0.05


--------------------------------------------------------------------------------------------------------


  energy-cutoff  :      500.00
  volume of cell :     4400.27
      direct lattice vectors                 reciprocal lattice vectors
    15.110600471  0.000000000  0.000000000     0.066178707  0.005884289  0.000000000
    -1.080094632 12.147476386  0.000000000     0.000000000  0.082321625  0.000000000
     0.000000000  0.000000000 23.972400665     0.000000000  0.000000000  0.041714637

  length of vectors
    15.110600471 12.195400238 23.972400665     0.066439793  0.082321625  0.041714637


 
 old parameters found on file WAVECAR:
  energy-cutoff  :      500.00
  volume of cell :     4400.27
      direct lattice vectors                 reciprocal lattice vectors
    15.110600471  0.000000000  0.000000000     0.066178707  0.005884289  0.000000000
    -1.080094632 12.147476386  0.000000000     0.000000000  0.082321625  0.000000000
     0.000000000  0.000000000 23.972400665     0.000000000  0.000000000  0.041714637

  length of vectors

 
 k-points in units of 2pi/SCALE and weight: Monkhorst Pack                          
   0.01654468  0.02205148  0.00000000       0.500
  -0.01654468  0.01910933  0.00000000       0.500
 
 k-points in reciprocal lattice and weights: Monkhorst Pack                          
   0.25000000  0.25000000  0.00000000       0.500
  -0.25000000  0.25000000  0.00000000       0.500
 
 position of ions in fractional coordinates (direct lattice) 
   0.08848000  0.32082999  0.03824000
   0.33847998  0.82083000  0.03824000
   0.58847999  0.32082999  0.03824000
   0.83848001  0.82083000  0.03824000
   0.07020001  0.83354995  0.04873000
   0.32019998  0.33355000  0.04873000
   0.57020004  0.83354995  0.04873000
   0.82020001  0.33355000  0.04873000
   0.23783000  0.06778000  0.05703000
   0.48783004  0.56778001  0.05703000
   0.73783001  0.06778000  0.05703000
   0.98782997  0.56778001  0.05703000
   0.21954999  0.58051001  0.06752000
   0.46955000  0.08051000  0.06752000
   0.71954999  0.58051001  0.06752000
   0.96955000  0.08051000  0.06752000
   0.10612755  0.98305186  0.17093538
   0.35636776  0.48379085  0.17111626
   0.60774656  0.98431877  0.17123478
   0.85538970  0.48263429  0.17320542
   0.08936856  0.49482119  0.18259939
   0.33911378  0.99492732  0.18219711
   0.58930743  0.49273285  0.18212223
   0.83897068  0.99581236  0.18267804
   0.00471753  0.23045048  0.19144831
   0.25350160  0.72996889  0.19135072
   0.50389163  0.22890488  0.19079972
   0.75749519  0.73037482  0.19088854
   0.23970443  0.24201248  0.20075209
   0.48828822  0.74287281  0.20000272
   0.74122382  0.24550305  0.20387629
   0.98907142  0.74050561  0.20198188
   0.12328046  0.64139754  0.31405311
   0.37156702  0.13932374  0.31298615
   0.62372220  0.64689450  0.30501120
   0.87456630  0.13931497  0.31406688
   0.10987441  0.16122955  0.31245077
   0.35854846  0.65953337  0.31275508
   0.60614647  0.15745101  0.31331231
   0.85883032  0.66212147  0.31770483
   0.02705098  0.88923388  0.32418383
   0.27563215  0.38855270  0.32539710
   0.52474660  0.88657034  0.32483409
   0.78140544  0.38268654  0.33380714
   0.01110532  0.40748058  0.33596866
   0.25887212  0.90664834  0.33606718
   0.50718496  0.39959620  0.33395778
   0.75978394  0.90775265  0.33628682
   0.69758649  0.54872998  0.42242697
   0.02440000  0.17254999  0.00000000
   0.27439999  0.67255002  0.00000000
   0.52439999  0.17254999  0.00000000
   0.77439999  0.67255002  0.00000000
   0.21455000  0.43156997  0.01581000
   0.46455001  0.93156996  0.01581000
   0.71455008  0.43156997  0.01581000
   0.96455004  0.93156996  0.01581000
   0.20673000  0.89092997  0.02490000
   0.45673000  0.39092998  0.02490000
   0.70672997  0.89092997  0.02490000
   0.95673004  0.39092998  0.02490000
   0.19748000  0.22610000  0.04418000
   0.44748002  0.72610003  0.04418000
   0.69748003  0.22610000  0.04418000
   0.94747999  0.72610003  0.04418000
   0.11054000  0.67523994  0.06158000
   0.36054002  0.17523999  0.06158000
   0.61053998  0.67523994  0.06158000
   0.86053999  0.17523999  0.06158000
   0.10129000  0.01041000  0.08086000
   0.35129000  0.51041000  0.08086000
   0.60128998  0.01041000  0.08086000
   0.85128994  0.51041000  0.08086000
   0.09348000  0.46976000  0.08995000
   0.34348000  0.96975995  0.08995000
   0.59348001  0.46976000  0.08995000
   0.84347996  0.96975995  0.08995000
   0.03362000  0.22878000  0.10576000
   0.28361999  0.72877998  0.10576000
   0.53361997  0.22878000  0.10576000
   0.78362002  0.72877998  0.10576000
   0.04560243  0.83306213  0.13362404
   0.29650601  0.33387712  0.13352982
   0.54658616  0.83373927  0.13346419
   0.79591434  0.33278666  0.13410164
   0.23141146  0.09338800  0.14618354
   0.48173872  0.59346982  0.14669109
   0.73179388  0.09382946  0.14693363
   0.98175179  0.59344937  0.14691254
   0.22573262  0.55227592  0.16052150
   0.47624051  0.05089230  0.16064520
   0.72518464  0.55213300  0.16063691
   0.97539489  0.05231206  0.16081538
   0.21511207  0.89018471  0.18101501
   0.46460308  0.38965933  0.18088559
   0.71520996  0.88959200  0.18124957
   0.96531468  0.39060094  0.18209202
   0.12994906  0.33509209  0.19237860
   0.37918913  0.83497667  0.19328657
   0.62823715  0.33496530  0.19428099
   0.87996321  0.83652990  0.19368372
   0.11794850  0.67112558  0.21470951
   0.36711266  0.16944153  0.21273827
   0.61881743  0.67083918  0.21390928
   0.86802068  0.17082412  0.21598084
   0.11566135  0.13049321  0.22387934
   0.36434445  0.63103148  0.22409301
   0.61513362  0.13129498  0.22483255
   0.86417292  0.63215030  0.22490445
   0.04740433  0.89337035  0.23968991
   0.29700337  0.39578936  0.24059237
   0.54742211  0.89325948  0.24006298
   0.79608893  0.39415664  0.24129771
   0.06947546  0.49226369  0.26891459
   0.31486262  0.99235940  0.26829352
   0.56242234  0.49369965  0.26877739
   0.81212254  0.99396462  0.26858512
   0.25157613  0.75013657  0.28269063
   0.49703089  0.24916307  0.28108932
   0.75036387  0.74955610  0.28280633
   0.00514777  0.25112072  0.28150703
   0.24591793  0.21427098  0.29104449
   0.49485566  0.71153031  0.29043625
   0.74409180  0.21505820  0.29610910
   0.99476339  0.71156103  0.29269754
   0.23931286  0.55424193  0.32939331
   0.48622590  0.05163068  0.32661416
   0.73252900  0.55256826  0.32685543
   0.98999150  0.05555776  0.32850021
   0.14759221  0.00390978  0.33047041
   0.39866747  0.50439731  0.33385309
   0.64381614  0.99989392  0.33377574
   0.89648571  0.50097978  0.32875247
   0.13771778  0.32137091  0.35151897
   0.38710867  0.81968037  0.35005864
   0.61862879  0.31026321  0.35349641
   0.89048689  0.83362975  0.34588954
   0.13187197  0.79989982  0.35573899
   0.38078174  0.29876467  0.35538862
   0.62908491  0.79330421  0.35498167
   0.89062117  0.29444628  0.35560681
   0.06565379  0.54485972  0.37491250
   0.31633661  0.04238828  0.37455586
   0.57746441  0.53951987  0.37821303
   0.81633946  0.04199684  0.37500414
   0.80627250  0.67106706  0.40557587
   0.75599699  0.41496564  0.41753667
   0.83774495  0.72116217  0.43177976
   0.34878209  0.59836459  0.44917445
   0.45118611  0.76963922  0.45288979
   0.25844829  0.78167556  0.51056461
   0.43218611  0.78286951  0.52506702
   0.20565389  0.68033952  0.46504974
   0.28486888  0.78459044  0.43879468
   0.50584504  0.58166411  0.47117785
   0.33018824  0.60478619  0.52134573
   0.49615919  0.60441145  0.54347220
   0.61437403  0.75279372  0.46542543
   0.60928217  0.76515999  0.53833856
   0.73872678  0.66195371  0.52337111
   0.65519720  0.56075094  0.54362594
   0.26865415  0.72897203  0.47432745
   0.43559222  0.72175484  0.49133464
   0.34476404  0.65681154  0.48423039
   0.50930556  0.64695895  0.50327608
   0.60383106  0.70380319  0.50426391
   0.67427851  0.61978407  0.50985907
 
 position of ions in cartesian coordinates  (Angst):
   0.99045921  3.89727473  0.91670460
   4.22806168  9.97101307  0.91670460
   8.54575920  3.89727473  0.91670460
  11.78336239  9.97101307  0.91670460
   0.16045142 10.12552833  1.16817511
   4.47814847  4.05179071  1.16817511
   7.71575212 10.12552833  1.16817511
  12.03344917  4.05179071  1.16817511
   3.52054525  0.82335597  1.36714601
   6.75814868  6.89709425  1.36714601
  11.07584571  0.82335597  1.36714601
  14.31344795  6.89709425  1.36714601
   2.69052649  7.05173159  1.61861647
   7.00822400  0.97799331  1.61861647
  10.24582672  7.05173159  1.61861647
  14.56352424  0.97799331  1.61861647
   0.54186204 11.94159924  4.09773150
   4.86239093  5.87683793  4.10206753
   8.12025803 11.95698902  4.10490870
  12.40416133  5.86278869  4.15214980
   0.81595896  6.01082870  4.37734568
   4.04959726 12.08585612  4.36770209
   8.37259100  5.98546065  4.36590704
  11.60177915 12.09660715  4.37923112
  -0.17762355  2.79939177  4.58947554
   3.04212590  8.86727984  4.58713624
   7.36686617  2.78061657  4.57392732
  10.65733325  8.87221091  4.57605661
   3.36068151  2.93984089  4.81250963
   6.57595523  9.02402988  4.79454522
  10.93517045  2.98224245  4.88740402
  14.14564690  8.99527438  4.84199050
   1.17007178  7.79136151  7.52860703
   5.46411791  1.69243184  7.50302927
   8.72610977  7.85813562  7.31185064
  13.06474867  1.69232530  7.52893712
   1.48612515  1.95853214  7.49019510
   4.70552403  8.01166605  7.49749020
   8.98917520  1.91263241  7.51084834
  12.26228795  8.04310495  7.61614745
  -0.55170011 10.80194751  7.77146471
   3.74529365  4.71993476  7.80054962
   6.97165642 10.76959233  7.78705297
  11.39416772  4.64867566  8.00215841
  -0.27230956  4.94986073  8.05397530
   2.93244712 11.01348929  8.05633717
   7.23226762  4.85408544  8.00576963
  10.50033274 11.02690384  8.06160230
   9.94827040  6.66568442 10.12658858
   0.18232835  2.09604693  0.00000000
   3.41993094  8.16978550  0.00000000
   7.73762846  2.09604693  0.00000000
  10.97523117  8.16978550  0.00000000
   2.77584291  5.24248600  0.37900365
   6.01344586 11.31622410  0.37900365
  10.33114434  5.24248600  0.37900365
  13.56874656 11.31622410  0.37900365
   2.16152573 10.82255077  0.59691280
   6.47922326  4.74881268  0.59691280
   9.71682548 10.82255077  0.59691280
  14.03452396  4.74881268  0.59691280
   2.73983193  2.74654436  1.05910064
   5.97743511  8.82028293  1.05910064
  10.29513263  2.74654436  1.05910064
  13.53273487  8.82028293  1.05910064
   0.94100273  8.20246124  1.47622036
   5.25870037  2.12872362  1.47622036
   8.49630260  8.20246124  1.47622036
  12.81400013  2.12872362  1.47622036
   1.51930892  0.12645522  1.93840825
   4.75691175  6.20019341  1.93840825
   9.07460880  0.12645522  1.93840825
  12.31221104  6.20019341  1.93840825
   0.90515363  5.70639848  2.15631746
   4.14275646 11.78013610  2.15631746
   8.46045399  5.70639848  2.15631746
  11.69805622 11.78013610  2.15631746
   0.26091433  2.77909971  2.53532100
   3.49851704  8.85283756  2.53532100
   7.81621408  2.77909971  2.53532100
  11.05381775  8.85283756  2.53532100
  -0.21070580 10.11960255  3.20328904
   4.11976497  4.05576442  3.20103045
   7.35872771 10.12782803  3.19945711
  11.66730249  4.04251806  3.21473819
   3.39589831  1.13442852  3.50437045
   6.63835769  7.20916064  3.51653747
  10.95650027  1.13979110  3.52235176
  14.19387752  7.20891226  3.52184632
   2.81444511  6.70875864  3.84808571
   7.14131152  0.61821302  3.85105108
  10.36161953  6.70702255  3.85085226
  14.68230049  0.63545952  3.85513068
   2.28898881 10.81349778  4.33936437
   6.59956257  4.73337748  4.33626183
   9.84640835 10.80629785  4.34498739
  14.16459851  4.74481564  4.36518288
   1.60167711  4.07052327  4.61177696
   4.82792170 10.14285932  4.63354313
   9.13124634  4.06898309  4.65738174
  12.39324104 10.16172722  4.64306367
   1.05739358  8.15248216  5.14710237
   5.36427990  2.05828696  5.09984706
   8.62613312  8.14900307  5.12791885
  12.93180747  2.07508200  5.17757934
   1.60676743  1.58516320  5.36692526
   4.82388972  7.66543994  5.37204736
   9.15322732  1.59490265  5.38977601
  12.37538952  7.67903083  5.39149966
  -0.24861661 10.85219523  5.74594247
   4.06040935  4.80784196  5.76757666
   7.30707205 10.85084840  5.75488605
  11.60365528  4.78800846  5.78448533
   0.51812462  5.97976155  6.44652840
   3.68592112 12.05466237  6.43163983
   7.96529699  5.99720487  6.44323923
  11.19808341 12.07416172  6.43863003
   2.99124794  9.11226621  6.77677310
   7.24131553  3.02670251  6.73838592
  10.52885715  9.10521498  6.77954676
  -0.19344819  3.05048297  6.74839935
   3.48453465  2.60285166  6.97703511
   6.70904612  8.64329768  6.96245405
  11.01139069  2.61241445  7.09844590
  14.26291884  8.64367082  7.01666278
   3.01752734  6.73264077  7.89634843
   7.29139923  0.62718249  7.82972555
  10.47212709  6.71230988  7.83550941
  14.89935832  0.67488653  7.87493872
   2.22598405  0.04749402  7.92216898
   5.47930796  6.12715437  8.00326002
   8.64846849 12.14618774  8.00140580
  13.00533187  6.08563999  7.88098588
   1.73388730  3.90384548  8.42675348
   4.96411215  9.95704799  8.39174604
   9.01273879  3.76891499  8.47415760
  12.55539263 10.12649767  8.29180254
   1.12869710  9.71676419  8.52791755
   5.43114665  3.62923676  8.51951847
   8.64900714  9.63664418  8.50976273
  13.13979086  3.57677928  8.52474903
   0.40356810  6.61867060  8.98755258
   4.73425276  0.51491068  8.97900313
   8.14310150  6.55380486  9.06667424
  12.29001884  0.51015563  8.98974961
  11.45844576  8.15177125  9.72262714
  10.97536625  5.04078527 10.00935623
  11.87990583  8.76030045 10.35079736
   4.62401647  7.26861967 10.76778992
   5.98640992  9.34917422 10.85685547
   3.06102529  9.49538535 12.23945945
   5.68501855  9.50988884 12.58711707
   2.37272272  8.26440820 11.14835878
   3.45710790  9.53079382 10.51896189
   7.01537007  7.06575109 11.29526414
   4.33611632  7.34662594 12.49790869
   6.84444173  7.34207380 13.02833329
   8.47047210  9.14454398 11.15736495
   8.38017423  9.29476289 12.90526772
  10.44763263  8.04106703 12.54646190
   9.29475899  6.81170877 13.03201881
   3.27216671  8.85517052 11.37076766
   5.80249654  8.76749983 11.77847095
   4.50017297  7.97860270 11.60816501
   6.99713587  7.85891860 12.06473593
   8.36407593  8.54943258 12.08841648
   9.51932767  7.52881234 12.22254587
 


--------------------------------------------------------------------------------------------------------


 k-point  1 :   0.2500 0.2500 0.0000  plane waves:  111683
 k-point  2 :  -0.2500 0.2500 0.0000  plane waves:  111725

 maximum and minimum number of plane-waves per node :      7001     6957

 maximum number of plane-waves:    111725
 maximum index in each direction: 
   IXMAX=   27   IYMAX=   21   IZMAX=   43
   IXMIN=  -27   IYMIN=  -22   IZMIN=  -43


 real space projection operators:
  total allocation   :      22450.90 KBytes
  max/ min on nodes  :       1639.27       1273.76


 parallel 3D FFT for wavefunctions:
    minimum data exchange during FFTs selected (reduces bandwidth)
 parallel 3D FFT for charge:
    minimum data exchange during FFTs selected (reduces bandwidth)


 total amount of memory used by VASP MPI-rank0    92394. kBytes
=======================================================================

   base      :      30000. kBytes
   nonlr-proj:       9131. kBytes
   fftplans  :       4220. kBytes
   grid      :      12288. kBytes
   one-center:        342. kBytes
   wavefun   :      36413. kBytes
 
     INWAV:  cpu time   37.5771: real time   37.5588
 Broyden mixing: mesh for mixing (old mesh)
   NGX = 55   NGY = 45   NGZ = 87
  (NGX  =168   NGY  =140   NGZ  =280)
  gives a total of 215325 points

 initial charge density was supplied:
 number of electron    1214.0000069 magnetization       0.0000000
 keeping initial charge density in first step


--------------------------------------------------------------------------------------------------------


 Maximum index for non-local projection operator          418
 Maximum index for augmentation-charges          480 (set IRDMAX)


--------------------------------------------------------------------------------------------------------


 First call to EWALD:  gamma=   0.108
 Maximum number of real-space cells 3x 4x 2
 Maximum number of reciprocal cells 3x 2x 4

    FEWALD:  cpu time    0.0371: real time    0.0371


--------------------------------------- Iteration      1(   1)  ---------------------------------------


    POTLOK:  cpu time    0.4611: real time    0.4854
    SETDIJ:  cpu time    0.0773: real time    0.0785
     EDDAV:  cpu time   25.8661: real time   25.8440
       DOS:  cpu time    0.0024: real time    0.0024
    CHARGE:  cpu time    1.0424: real time    1.0432
    MIXING:  cpu time    0.0164: real time    0.0179
    --------------------------------------------
      LOOP:  cpu time   27.4660: real time   27.4717

 eigenvalue-minimisations  :  6304
 total energy-change (2. order) :-0.1378677E+04  (-0.1349025E+00)
 number of electron    1214.0000069 magnetization       0.0000000
 augmentation part       74.0154855 magnetization      -0.0000000

 Broyden mixing:
  rms(total) = 0.95124E-01    rms(broyden)= 0.95044E-01
  rms(prec ) = 0.96371E-01
  weight for this iteration     100.00

 Free energy of the ion-electron system (eV)
  ---------------------------------------------------
  alpha Z        PSCENC =      2166.38705829
  Ewald energy   TEWEN  =    387713.65574835
  -Hartree energ DENC   =   -484800.17212808
  -exchange      EXHF   =         0.00000000
  -V(xc)+E(xc)   XCENC  =      5337.63874586
  PAW double counting   =    130199.04852832  -129521.13915947
  entropy T*S    EENTRO =        -0.00000000
  eigenvalues    EBANDS =    -18829.36254837
  atomic energy  EATOM  =    106355.26625530
  Solvation  Ediel_sol  =         0.00000000
  ---------------------------------------------------
  free energy    TOTEN  =     -1378.67749980 eV

  energy without entropy =    -1378.67749980  energy(sigma->0) =    -1378.67749980


--------------------------------------------------------------------------------------------------------




--------------------------------------- Iteration      1(   2)  ---------------------------------------


    POTLOK:  cpu time    0.4218: real time    0.4497
    SETDIJ:  cpu time    0.0767: real time    0.0767
     EDDAV:  cpu time   25.3528: real time   25.3095
       DOS:  cpu time    0.0019: real time    0.0019
    CHARGE:  cpu time    1.0451: real time    1.0440
    MIXING:  cpu time    0.0092: real time    0.0112
    --------------------------------------------
      LOOP:  cpu time   26.9076: real time   26.8930

 eigenvalue-minimisations  :  6048
 total energy-change (2. order) :-0.1756482E+01  (-0.1201850E+00)
 number of electron    1214.0000068 magnetization       0.0000000
 augmentation part       73.9417963 magnetization      -0.0000000

 Broyden mixing:
  rms(total) = 0.41069E-01    rms(broyden)= 0.40950E-01
  rms(prec ) = 0.43212E-01
  weight for this iteration     100.00

 eigenvalues of (default mixing * dielectric matrix)
  average eigenvalue GAMMA=   0.7360
  0.7360

 Free energy of the ion-electron system (eV)
  ---------------------------------------------------
  alpha Z        PSCENC =      2166.38705829
  Ewald energy   TEWEN  =    387713.65574835
  -Hartree energ DENC   =   -484801.31122593
  -exchange      EXHF   =         0.00000000
  -V(xc)+E(xc)   XCENC  =      5337.73385939
  PAW double counting   =    130055.30094633  -129376.34246146
  entropy T*S    EENTRO =        -0.00000000
  eigenvalues    EBANDS =    -18831.12416255
  atomic energy  EATOM  =    106355.26625530
  Solvation  Ediel_sol  =         0.00000000
  ---------------------------------------------------
  free energy    TOTEN  =     -1380.43398230 eV

  energy without entropy =    -1380.43398230  energy(sigma->0) =    -1380.43398230


--------------------------------------------------------------------------------------------------------




--------------------------------------- Iteration      1(   3)  ---------------------------------------


    POTLOK:  cpu time    0.4369: real time    0.4483
    SETDIJ:  cpu time    0.0764: real time    0.0762
     EDDAV:  cpu time   27.4737: real time   27.4261
       DOS:  cpu time    0.0019: real time    0.0019
    CHARGE:  cpu time    1.0492: real time    1.0481
    MIXING:  cpu time    0.0085: real time    0.0099
    --------------------------------------------
      LOOP:  cpu time   29.0468: real time   29.0107

 eigenvalue-minimisations  :  6720
 total energy-change (2. order) :-0.9873679E-02  (-0.4338420E-02)
 number of electron    1214.0000069 magnetization       0.0000000
 augmentation part       73.9733439 magnetization      -0.0000000

 Broyden mixing:
  rms(total) = 0.27744E-01    rms(broyden)= 0.27727E-01
  rms(prec ) = 0.28169E-01
  weight for this iteration     100.00

 eigenvalues of (default mixing * dielectric matrix)
  average eigenvalue GAMMA=   0.6928
  0.6928  0.6928

 Free energy of the ion-electron system (eV)
  ---------------------------------------------------
  alpha Z        PSCENC =      2166.38705829
  Ewald energy   TEWEN  =    387713.65574835
  -Hartree energ DENC   =   -484798.87511346
  -exchange      EXHF   =         0.00000000
  -V(xc)+E(xc)   XCENC  =      5337.53767881
  PAW double counting   =    130082.07825938  -129402.36425789
  entropy T*S    EENTRO =        -0.00000000
  eigenvalues    EBANDS =    -18834.12948475
  atomic energy  EATOM  =    106355.26625530
  Solvation  Ediel_sol  =         0.00000000
  ---------------------------------------------------
  free energy    TOTEN  =     -1380.44385597 eV

  energy without entropy =    -1380.44385597  energy(sigma->0) =    -1380.44385597


--------------------------------------------------------------------------------------------------------




--------------------------------------- Iteration      1(   4)  ---------------------------------------


    POTLOK:  cpu time    0.4231: real time    0.4787
    SETDIJ:  cpu time    0.0768: real time    0.0767
     EDDAV:  cpu time   23.6163: real time   23.5704
       DOS:  cpu time    0.0019: real time    0.0019
    CHARGE:  cpu time    1.0372: real time    1.0361
    MIXING:  cpu time    0.0087: real time    0.0092
    --------------------------------------------
      LOOP:  cpu time   25.1639: real time   25.1729

 eigenvalue-minimisations  :  5536
 total energy-change (2. order) :-0.3971915E-04  (-0.2179849E-03)
 number of electron    1214.0000069 magnetization       0.0000000
 augmentation part       73.9687615 magnetization      -0.0000000

 Broyden mixing:
  rms(total) = 0.22385E-01    rms(broyden)= 0.22384E-01
  rms(prec ) = 0.22695E-01
  weight for this iteration     100.00

 eigenvalues of (default mixing * dielectric matrix)
  average eigenvalue GAMMA=   0.6860
  0.7724  0.7724  0.5131

 Free energy of the ion-electron system (eV)
  ---------------------------------------------------
  alpha Z        PSCENC =      2166.38705829
  Ewald energy   TEWEN  =    387713.65574835
  -Hartree energ DENC   =   -484799.63252237
  -exchange      EXHF   =         0.00000000
  -V(xc)+E(xc)   XCENC  =      5337.60623492
  PAW double counting   =    130111.51841147  -129431.75324733
  entropy T*S    EENTRO =        -0.00000000
  eigenvalues    EBANDS =    -18833.49183431
  atomic energy  EATOM  =    106355.26625530
  Solvation  Ediel_sol  =         0.00000000
  ---------------------------------------------------
  free energy    TOTEN  =     -1380.44389569 eV

  energy without entropy =    -1380.44389569  energy(sigma->0) =    -1380.44389569


--------------------------------------------------------------------------------------------------------




--------------------------------------- Iteration      1(   5)  ---------------------------------------


    POTLOK:  cpu time    0.4335: real time    0.4461
    SETDIJ:  cpu time    0.0766: real time    0.0766
     EDDAV:  cpu time   27.0754: real time   27.0304
       DOS:  cpu time    0.0021: real time    0.0021
    CHARGE:  cpu time    1.0481: real time    1.0470
    MIXING:  cpu time    0.0090: real time    0.0090
    --------------------------------------------
      LOOP:  cpu time   28.6446: real time   28.6112

 eigenvalue-minimisations  :  6624
 total energy-change (2. order) :-0.4861300E-05  (-0.2002394E-04)
 number of electron    1214.0000069 magnetization       0.0000000
 augmentation part       73.9744790 magnetization      -0.0000000

 Broyden mixing:
  rms(total) = 0.18838E-01    rms(broyden)= 0.18838E-01
  rms(prec ) = 0.19098E-01
  weight for this iteration     100.00

 eigenvalues of (default mixing * dielectric matrix)
  average eigenvalue GAMMA=   0.7344
  0.9180  0.9180  0.5508  0.5508

 Free energy of the ion-electron system (eV)
  ---------------------------------------------------
  alpha Z        PSCENC =      2166.38705829
  Ewald energy   TEWEN  =    387713.65574835
  -Hartree energ DENC   =   -484799.71915505
  -exchange      EXHF   =         0.00000000
  -V(xc)+E(xc)   XCENC  =      5337.61046514
  PAW double counting   =    130129.40464101  -129449.60120857
  entropy T*S    EENTRO =        -0.00000000
  eigenvalues    EBANDS =    -18833.44770503
  atomic energy  EATOM  =    106355.26625530
  Solvation  Ediel_sol  =         0.00000000
  ---------------------------------------------------
  free energy    TOTEN  =     -1380.44390055 eV

  energy without entropy =    -1380.44390055  energy(sigma->0) =    -1380.44390055


--------------------------------------------------------------------------------------------------------




--------------------------------------- Iteration      1(   6)  ---------------------------------------


    POTLOK:  cpu time    0.4509: real time    0.4507
    SETDIJ:  cpu time    0.0767: real time    0.0767
     EDDAV:  cpu time   27.9329: real time   27.8802
       DOS:  cpu time    0.0019: real time    0.0019
    CHARGE:  cpu time    1.0836: real time    1.0824
    MIXING:  cpu time    0.0096: real time    0.0095
    --------------------------------------------
      LOOP:  cpu time   29.5557: real time   29.5015

 eigenvalue-minimisations  :  6848
 total energy-change (2. order) :-0.1270925E-04  (-0.2438722E-05)
 number of electron    1214.0000069 magnetization       0.0000000
 augmentation part       73.9761676 magnetization      -0.0000000

 Broyden mixing:
  rms(total) = 0.16142E-01    rms(broyden)= 0.16142E-01
  rms(prec ) = 0.16377E-01
  weight for this iteration     100.00

 eigenvalues of (default mixing * dielectric matrix)
  average eigenvalue GAMMA=   0.7979
  1.1296  1.1296  0.5226  0.6038  0.6038

 Free energy of the ion-electron system (eV)
  ---------------------------------------------------
  alpha Z        PSCENC =      2166.38705829
  Ewald energy   TEWEN  =    387713.65574835
  -Hartree energ DENC   =   -484799.85460923
  -exchange      EXHF   =         0.00000000
  -V(xc)+E(xc)   XCENC  =      5337.61891169
  PAW double counting   =    130144.54186173  -129464.72493647
  entropy T*S    EENTRO =        -0.00000000
  eigenvalues    EBANDS =    -18833.33420292
  atomic energy  EATOM  =    106355.26625530
  Solvation  Ediel_sol  =         0.00000000
  ---------------------------------------------------
  free energy    TOTEN  =     -1380.44391326 eV

  energy without entropy =    -1380.44391326  energy(sigma->0) =    -1380.44391326


--------------------------------------------------------------------------------------------------------




--------------------------------------- Iteration      1(   7)  ---------------------------------------


    POTLOK:  cpu time    0.4514: real time    0.4514
    SETDIJ:  cpu time    0.0768: real time    0.0767
     EDDAV:  cpu time   27.1106: real time   27.0658
       DOS:  cpu time    0.0020: real time    0.0020
    CHARGE:  cpu time    1.0865: real time    1.0853
    MIXING:  cpu time    0.0101: real time    0.0101
    --------------------------------------------
      LOOP:  cpu time   28.7375: real time   28.6914

 eigenvalue-minimisations  :  6592
 total energy-change (2. order) :-0.6072034E-05  (-0.2317267E-05)
 number of electron    1214.0000069 magnetization       0.0000000
 augmentation part       73.9773074 magnetization      -0.0000000

 Broyden mixing:
  rms(total) = 0.12997E-01    rms(broyden)= 0.12997E-01
  rms(prec ) = 0.13183E-01
  weight for this iteration     100.00

 eigenvalues of (default mixing * dielectric matrix)
  average eigenvalue GAMMA=   0.8616
  1.3481  1.3481  0.6877  0.6877  0.5489  0.5489

 Free energy of the ion-electron system (eV)
  ---------------------------------------------------
  alpha Z        PSCENC =      2166.38705829
  Ewald energy   TEWEN  =    387713.65574835
  -Hartree energ DENC   =   -484799.91109099
  -exchange      EXHF   =         0.00000000
  -V(xc)+E(xc)   XCENC  =      5337.62405335
  PAW double counting   =    130161.23843224  -129481.40879697
  entropy T*S    EENTRO =        -0.00000000
  eigenvalues    EBANDS =    -18833.29557890
  atomic energy  EATOM  =    106355.26625530
  Solvation  Ediel_sol  =         0.00000000
  ---------------------------------------------------
  free energy    TOTEN  =     -1380.44391934 eV

  energy without entropy =    -1380.44391934  energy(sigma->0) =    -1380.44391934


--------------------------------------------------------------------------------------------------------




--------------------------------------- Iteration      1(   8)  ---------------------------------------


    POTLOK:  cpu time    0.4396: real time    0.4528
    SETDIJ:  cpu time    0.0763: real time    0.0762
     EDDAV:  cpu time   26.5155: real time   26.4647
       DOS:  cpu time    0.0019: real time    0.0020
    CHARGE:  cpu time    1.0842: real time    1.0829
    MIXING:  cpu time    0.0105: real time    0.0104
    --------------------------------------------
      LOOP:  cpu time   28.1281: real time   28.0891

 eigenvalue-minimisations  :  6336
 total energy-change (2. order) :-0.5252994E-05  (-0.1834985E-05)
 number of electron    1214.0000069 magnetization       0.0000000
 augmentation part       73.9790295 magnetization      -0.0000000

 Broyden mixing:
  rms(total) = 0.10604E-01    rms(broyden)= 0.10604E-01
  rms(prec ) = 0.10749E-01
  weight for this iteration     100.00

 eigenvalues of (default mixing * dielectric matrix)
  average eigenvalue GAMMA=   0.9142
  1.5804  1.5804  0.7686  0.7686  0.5331  0.5843  0.5843

 Free energy of the ion-electron system (eV)
  ---------------------------------------------------
  alpha Z        PSCENC =      2166.38705829
  Ewald energy   TEWEN  =    387713.65574835
  -Hartree energ DENC   =   -484799.95933263
  -exchange      EXHF   =         0.00000000
  -V(xc)+E(xc)   XCENC  =      5337.62735766
  PAW double counting   =    130174.14721784  -129494.30754959
  entropy T*S    EENTRO =        -0.00000000
  eigenvalues    EBANDS =    -18833.26067980
  atomic energy  EATOM  =    106355.26625530
  Solvation  Ediel_sol  =         0.00000000
  ---------------------------------------------------
  free energy    TOTEN  =     -1380.44392459 eV

  energy without entropy =    -1380.44392459  energy(sigma->0) =    -1380.44392459


--------------------------------------------------------------------------------------------------------




--------------------------------------- Iteration      1(   9)  ---------------------------------------


    POTLOK:  cpu time    0.4382: real time    0.4509
    SETDIJ:  cpu time    0.0763: real time    0.0762
     EDDAV:  cpu time   20.0744: real time   20.0264
       DOS:  cpu time    0.0020: real time    0.0020
    CHARGE:  cpu time    1.0817: real time    1.0805
    MIXING:  cpu time    0.0108: real time    0.0108
    --------------------------------------------
      LOOP:  cpu time   21.6834: real time   21.6467

 eigenvalue-minimisations  :  4320
 total energy-change (2. order) :-0.4259171E-05  (-0.5020368E-06)
 number of electron    1214.0000069 magnetization       0.0000000
 augmentation part       73.9799202 magnetization      -0.0000000

 Broyden mixing:
  rms(total) = 0.90466E-02    rms(broyden)= 0.90466E-02
  rms(prec ) = 0.91722E-02
  weight for this iteration     100.00

 eigenvalues of (default mixing * dielectric matrix)
  average eigenvalue GAMMA=   1.0513
  2.0468  2.0468  0.9143  0.9143  0.6628  0.6628  0.5814  0.5814

 Free energy of the ion-electron system (eV)
  ---------------------------------------------------
  alpha Z        PSCENC =      2166.38705829
  Ewald energy   TEWEN  =    387713.65574835
  -Hartree energ DENC   =   -484799.98673286
  -exchange      EXHF   =         0.00000000
  -V(xc)+E(xc)   XCENC  =      5337.62874552
  PAW double counting   =    130182.57844611  -129502.73692359
  entropy T*S    EENTRO =        -0.00000000
  eigenvalues    EBANDS =    -18833.23652597
  atomic energy  EATOM  =    106355.26625530
  Solvation  Ediel_sol  =         0.00000000
  ---------------------------------------------------
  free energy    TOTEN  =     -1380.44392885 eV

  energy without entropy =    -1380.44392885  energy(sigma->0) =    -1380.44392885


--------------------------------------------------------------------------------------------------------




--------------------------------------- Iteration      1(  10)  ---------------------------------------


    POTLOK:  cpu time    0.4463: real time    0.4462
    SETDIJ:  cpu time    0.0764: real time    0.0763
     EDDAV:  cpu time   26.4406: real time   26.3916
       DOS:  cpu time    0.0020: real time    0.0019
    CHARGE:  cpu time    1.0916: real time    1.0905
    MIXING:  cpu time    0.0134: real time    0.0134
    --------------------------------------------
      LOOP:  cpu time   28.0702: real time   28.0200

 eigenvalue-minimisations  :  6400
 total energy-change (2. order) :-0.4875357E-05  (-0.2196676E-05)
 number of electron    1214.0000069 magnetization       0.0000000
 augmentation part       73.9810833 magnetization      -0.0000000

 Broyden mixing:
  rms(total) = 0.55423E-02    rms(broyden)= 0.55422E-02
  rms(prec ) = 0.56238E-02
  weight for this iteration     100.00

 eigenvalues of (default mixing * dielectric matrix)
  average eigenvalue GAMMA=   1.1250
  2.4030  2.4030  1.0602  1.0602  0.6969  0.6969  0.5873  0.6085  0.6085

 Free energy of the ion-electron system (eV)
  ---------------------------------------------------
  alpha Z        PSCENC =      2166.38705829
  Ewald energy   TEWEN  =    387713.65574835
  -Hartree energ DENC   =   -484800.05010871
  -exchange      EXHF   =         0.00000000
  -V(xc)+E(xc)   XCENC  =      5337.63242728
  PAW double counting   =    130201.14957644  -129521.30090746
  entropy T*S    EENTRO =        -0.00000000
  eigenvalues    EBANDS =    -18833.18398321
  atomic energy  EATOM  =    106355.26625530
  Solvation  Ediel_sol  =         0.00000000
[...]
   -.996E+02 0.881E+02 -.160E+04   0.102E+03 -.898E+02 0.161E+04   -.280E+01 0.163E+01 -.114E+02   -.151E-03 0.370E-04 -.158E-03
   -.191E+02 -.180E+02 -.177E+04   0.186E+02 0.219E+02 0.179E+04   0.530E+00 -.384E+01 -.182E+02   -.940E-04 -.318E-03 -.127E-02
   0.262E+02 -.831E+02 -.178E+04   -.260E+02 0.870E+02 0.180E+04   -.262E+00 -.392E+01 -.183E+02   -.322E-03 -.121E-03 -.151E-02
   0.200E+03 0.309E+02 -.153E+04   -.209E+03 -.284E+02 0.153E+04   0.971E+01 -.247E+01 -.573E+01   -.106E-02 0.328E-04 -.130E-03
   -.306E+02 -.779E+02 -.178E+04   0.308E+02 0.824E+02 0.180E+04   -.242E+00 -.456E+01 -.184E+02   0.294E-03 -.381E-03 -.121E-02
   -.182E+03 -.147E+03 -.166E+04   0.172E+03 0.133E+03 0.164E+04   0.999E+01 0.143E+02 0.174E+02   0.784E-03 0.953E-03 0.107E-02
   -.147E+03 0.280E+03 -.176E+04   0.155E+03 -.294E+03 0.177E+04   -.767E+01 0.142E+02 -.120E+02   0.166E-03 0.322E-03 -.352E-03
   -.631E+02 -.706E+02 -.329E+03   0.668E+02 0.759E+02 0.334E+03   -.366E+01 -.525E+01 -.537E+01   -.699E-04 -.443E-04 0.518E-04
   0.134E+02 0.513E+02 -.211E+03   -.128E+02 -.547E+02 0.207E+03   -.602E+00 0.349E+01 0.396E+01   0.163E-04 -.305E-06 0.492E-04
   -.159E+01 -.495E+02 -.204E+03   0.244E+01 0.523E+02 0.200E+03   -.859E+00 -.287E+01 0.446E+01   0.517E-04 -.250E-05 0.101E-03
   0.326E+02 -.421E+02 -.250E+03   -.337E+02 0.453E+02 0.255E+03   0.109E+01 -.322E+01 -.433E+01   0.196E-04 0.101E-05 0.232E-04
   0.135E+02 -.595E+02 -.241E+03   -.141E+02 0.631E+02 0.245E+03   0.556E+00 -.368E+01 -.395E+01   0.863E-04 -.168E-04 0.337E-04
   0.594E+02 0.262E+02 -.236E+03   -.640E+02 -.291E+02 0.235E+03   0.459E+01 0.296E+01 0.113E+01   0.898E-05 -.896E-05 0.432E-04
   0.120E+02 -.392E+02 -.226E+03   -.111E+02 0.425E+02 0.222E+03   -.954E+00 -.326E+01 0.401E+01   0.251E-04 -.210E-05 0.897E-04
   0.191E+02 0.547E+02 -.209E+03   -.190E+02 -.586E+02 0.205E+03   -.677E-01 0.387E+01 0.377E+01   0.660E-04 0.831E-04 0.167E-03
   0.282E+02 0.481E+02 -.246E+03   -.290E+02 -.512E+02 0.250E+03   0.808E+00 0.315E+01 -.438E+01   0.440E-04 0.159E-04 0.207E-04
   0.170E+02 0.400E+02 -.240E+03   -.177E+02 -.426E+02 0.245E+03   0.727E+00 0.256E+01 -.472E+01   0.144E-03 0.600E-04 0.178E-04
   -.661E+01 -.608E+02 -.207E+03   0.707E+01 0.637E+02 0.202E+03   -.466E+00 -.292E+01 0.440E+01   0.825E-04 -.640E-04 0.295E-03
   -.869E+01 -.610E+02 -.233E+03   0.881E+01 0.646E+02 0.237E+03   -.119E+00 -.362E+01 -.397E+01   0.126E-03 -.140E-03 -.304E-05
   -.632E+02 -.304E+02 -.235E+03   0.674E+02 0.327E+02 0.237E+03   -.429E+01 -.232E+01 -.158E+01   -.370E-03 -.816E-04 -.681E-05
   -.282E+01 0.470E+02 -.238E+03   0.181E+01 -.504E+02 0.242E+03   0.101E+01 0.343E+01 -.384E+01   0.658E-04 0.372E-03 -.174E-03
   0.127E+03 -.436E+02 -.942E+03   -.128E+03 0.429E+02 0.942E+03   0.206E+00 0.715E+00 -.570E+00   0.724E-04 -.156E-06 0.210E-03
   0.405E+02 -.975E+02 -.895E+03   -.402E+02 0.973E+02 0.895E+03   -.264E+00 0.237E+00 -.171E+00   0.326E-03 0.188E-04 0.290E-03
   0.853E+02 0.779E+02 -.914E+03   -.848E+02 -.776E+02 0.915E+03   -.504E+00 -.377E+00 -.447E+00   0.153E-03 -.826E-05 0.204E-03
   0.466E+02 0.541E+02 -.896E+03   -.463E+02 -.537E+02 0.896E+03   -.393E+00 -.361E+00 0.650E-02   0.610E-03 0.126E-03 0.440E-03
   -.247E+02 -.123E+03 -.899E+03   0.248E+02 0.123E+03 0.900E+03   -.101E+00 0.246E+00 -.781E+00   0.101E-02 -.421E-03 0.721E-03
   -.823E+02 0.213E+02 -.947E+03   0.828E+02 -.249E+02 0.942E+03   -.527E+00 0.360E+01 0.570E+01   -.405E-04 0.597E-03 0.672E-03
 -----------------------------------------------------------------------------------------------
   0.133E+02 -.590E+00 0.637E+02   -.199E-12 0.924E-13 -.481E-10   -.134E+02 0.300E+00 -.639E+02   0.393E-02 0.571E-02 0.444E-01
 
 
 POSITION                                       TOTAL-FORCE (eV/Angst)
 -----------------------------------------------------------------------------------
      0.99046      3.89727      0.91670        -1.484331     -1.862704     -0.703667
      4.22806      9.97101      0.91670        -1.489015     -1.882822     -0.760514
      8.54576      3.89727      0.91670        -1.349016     -1.921007     -0.790736
     11.78336      9.97101      0.91670        -1.352246     -1.837362     -0.778521
      0.16045     10.12553      1.16818        -0.222453      1.673174      0.328921
      4.47815      4.05179      1.16818        -0.190989      1.717770      0.199738
      7.71575     10.12553      1.16818        -0.101818      1.756762      0.161358
     12.03345      4.05179      1.16818        -0.139082      1.823217      0.507425
      3.52055      0.82336      1.36715        -0.846707     -0.877377      1.545632
      6.75815      6.89709      1.36715        -0.823659     -0.877677      1.544434
     11.07585      0.82336      1.36715        -0.763251     -0.811471      1.718393
     14.31345      6.89709      1.36715        -0.955410     -0.965886      1.761466
      2.69053      7.05173      1.61862         1.480594      0.473773     -2.496459
      7.00822      0.97799      1.61862         1.582638      0.437016     -2.509009
     10.24583      7.05173      1.61862         1.736916      0.385257     -2.462616
     14.56352      0.97799      1.61862         1.538096      0.510030     -2.466028
      0.54186     11.94160      4.09773         0.003616     -0.002620     -0.012635
      4.86239      5.87684      4.10207        -0.001435     -0.002002      0.003290
      8.12026     11.95699      4.10491        -0.004841     -0.000485     -0.002086
     12.40416      5.86279      4.15215         0.005377     -0.005825     -0.007697
      0.81596      6.01083      4.37735         0.004197     -0.003355      0.001973
      4.04960     12.08586      4.36770        -0.003821      0.000830     -0.002673
      8.37259      5.98546      4.36591         0.001908     -0.002190     -0.002245
     11.60178     12.09661      4.37923         0.002527      0.002594      0.001065
     -0.17762      2.79939      4.58948        -0.003476     -0.002092      0.004598
      3.04213      8.86728      4.58714        -0.001230     -0.004037     -0.003571
      7.36687      2.78062      4.57393         0.002577     -0.002065      0.005115
     10.65733      8.87221      4.57606        -0.001813     -0.000303     -0.004354
      3.36068      2.93984      4.81251         0.002503     -0.004082     -0.001576
      6.57596      9.02403      4.79455         0.002174      0.000692      0.001806
     10.93517      2.98224      4.88740         0.002218     -0.005229      0.003812
     14.14565      8.99527      4.84199        -0.000403      0.003475     -0.003491
      1.17007      7.79136      7.52861         0.000380     -0.001030      0.001850
      5.46412      1.69243      7.50303        -0.002831      0.002333      0.000834
      8.72611      7.85814      7.31185        -0.000029      0.002240      0.003275
     13.06475      1.69233      7.52894        -0.000764      0.003566     -0.003459
      1.48613      1.95853      7.49020        -0.001797     -0.003360     -0.001142
      4.70552      8.01167      7.49749        -0.001397     -0.003919     -0.003669
      8.98918      1.91263      7.51085        -0.004136     -0.007918      0.002764
     12.26229      8.04310      7.61615         0.000731      0.009749      0.003194
     -0.55170     10.80195      7.77146        -0.005562     -0.002108      0.004164
      3.74529      4.71993      7.80055        -0.004124     -0.004109      0.002257
      6.97166     10.76959      7.78705        -0.001387     -0.002016     -0.006971
     11.39417      4.64868      8.00216        -0.002230      0.001564      0.003820
     -0.27231      4.94986      8.05398         0.001299     -0.003108     -0.000856
      2.93245     11.01349      8.05634        -0.002761      0.008064      0.000225
      7.23227      4.85409      8.00577         0.000266     -0.006296      0.000579
     10.50033     11.02690      8.06160        -0.001907     -0.005277      0.005931
      9.94827      6.66568     10.12659        -0.007827      0.000228     -0.008548
      0.18233      2.09605      0.00000         0.267753      0.964537      1.278559
      3.41993      8.16979      0.00000         0.285853      0.991093      1.278454
      7.73763      2.09605      0.00000         0.257681      0.976722      1.294076
     10.97523      8.16979      0.00000         0.246078      0.993418      1.296180
      2.77584      5.24249      0.37900        -0.001948     -0.928864      0.590047
      6.01345     11.31622      0.37900        -0.034749     -0.927508      0.595703
     10.33114      5.24249      0.37900        -0.102276     -0.924626      0.584191
     13.56875     11.31622      0.37900        -0.047256     -0.927767      0.578682
      2.16153     10.82255      0.59691         0.407757      1.205281     -0.184471
      6.47922      4.74881      0.59691         0.392367      1.218693     -0.182580
      9.71683     10.82255      0.59691         0.353309      1.181894     -0.184300
     14.03452      4.74881      0.59691         0.396848      1.173762     -0.211567
      2.73983      2.74654      1.05910         1.188912     -1.028155     -0.427843
      5.97744      8.82028      1.05910         1.168025     -1.051572     -0.403296
     10.29513      2.74654      1.05910         1.120965     -1.022843     -0.451271
     13.53273      8.82028      1.05910         1.135101     -1.008332     -0.448443
      0.94100      8.20246      1.47622        -1.107321     -0.301533     -0.902604
      5.25870      2.12872      1.47622        -1.119485     -0.308423     -0.891324
      8.49630      8.20246      1.47622        -1.182482     -0.318217     -0.895191
     12.81400      2.12872      1.47622        -1.142576     -0.322414     -0.906934
      1.51931      0.12646      1.93841         0.364540     -0.067539      0.212551
      4.75691      6.20019      1.93841         0.433983     -0.010606      0.232336
      9.07461      0.12646      1.93841         0.413395     -0.035509      0.254421
     12.31221      6.20019      1.93841         0.356530     -0.086003      0.363683
      0.90515      5.70640      2.15632        -0.365092      0.332757      0.136193
      4.14276     11.78014      2.15632        -0.352507      0.323609      0.147644
      8.46045      5.70640      2.15632        -0.409114      0.301369      0.200038
     11.69806     11.78014      2.15632        -0.394377      0.322524      0.180845
      0.26091      2.77910      2.53532         0.210717      0.403641      0.526295
      3.49852      8.85284      2.53532         0.233923      0.421839      0.603622
      7.81621      2.77910      2.53532         0.219814      0.401902      0.490086
     11.05382      8.85284      2.53532         0.264175      0.433739      0.488047
     -0.21071     10.11960      3.20329         0.008034      0.005303     -0.013231
      4.11976      4.05576      3.20103        -0.003048      0.005401     -0.000383
      7.35873     10.12783      3.19946        -0.006875     -0.005908      0.000783
     11.66730      4.04252      3.21474         0.000545      0.007730     -0.005022
      3.39590      1.13443      3.50437         0.001980      0.000764     -0.000530
      6.63836      7.20916      3.51654         0.002278     -0.002301      0.001316
     10.95650      1.13979      3.52235         0.007538     -0.005771     -0.003403
     14.19388      7.20891      3.52185         0.000610      0.000331      0.004067
      2.81445      6.70876      3.84809        -0.007047      0.001174      0.000392
      7.14131      0.61821      3.85105         0.000412     -0.006433      0.005267
     10.36162      6.70702      3.85085         0.005270     -0.000996     -0.000025
     14.68230      0.63546      3.85513        -0.000015      0.011695      0.003014
      2.28899     10.81350      4.33936         0.001508     -0.007014      0.002363
      6.59956      4.73338      4.33626        -0.000148      0.003269     -0.012831
      9.84641     10.80630      4.34499         0.006014     -0.005109      0.001912
     14.16460      4.74482      4.36518        -0.001723      0.001626     -0.004275
      1.60168      4.07052      4.61178        -0.000306      0.001265      0.000376
      4.82792     10.14286      4.63354        -0.002115     -0.002749     -0.004437
      9.13125      4.06898      4.65738        -0.005543      0.006512     -0.000539
     12.39324     10.16173      4.64306        -0.005767     -0.001608     -0.002343
      1.05739      8.15248      5.14710         0.006724      0.009400     -0.004814
      5.36428      2.05829      5.09985         0.000717     -0.007856      0.002832
      8.62613      8.14900      5.12792        -0.006784     -0.008128     -0.002603
     12.93181      2.07508      5.17758         0.005781     -0.000036      0.003433
      1.60677      1.58516      5.36693        -0.004161     -0.002052      0.007554
      4.82389      7.66544      5.37205        -0.014897     -0.004315      0.007830
      9.15323      1.59490      5.38978        -0.000561      0.003147      0.005917
     12.37539      7.67903      5.39150         0.001982      0.005247     -0.006448
     -0.24862     10.85220      5.74594        -0.006744     -0.004479      0.001686
      4.06041      4.80784      5.76758         0.002154      0.003128      0.003963
      7.30707     10.85085      5.75489        -0.002742      0.002721     -0.003622
     11.60366      4.78801      5.78449        -0.000322     -0.006812     -0.000888
      0.51812      5.97976      6.44653         0.004132     -0.003466      0.005195
      3.68592     12.05466      6.43164         0.007130      0.000694      0.000966
      7.96530      5.99720      6.44324         0.001359      0.001899      0.001247
     11.19808     12.07416      6.43863        -0.001667     -0.004577     -0.003259
      2.99125      9.11227      6.77677         0.002753      0.001895      0.002479
      7.24132      3.02670      6.73839         0.008400      0.003646      0.003375
     10.52886      9.10521      6.77955         0.001925      0.000874      0.001555
     -0.19345      3.05048      6.74840        -0.001409     -0.011603     -0.005219
      3.48453      2.60285      6.97704        -0.000592     -0.001648     -0.005925
      6.70905      8.64330      6.96245         0.003394     -0.009026      0.000575
     11.01139      2.61241      7.09845         0.005383      0.003334     -0.001053
     14.26292      8.64367      7.01666         0.006905      0.006850      0.004839
      3.01753      6.73264      7.89635        -0.001011     -0.001607     -0.001229
      7.29140      0.62718      7.82973         0.010067     -0.007649      0.007403
     10.47213      6.71231      7.83551         0.001481     -0.010932     -0.002344
     14.89936      0.67489      7.87494        -0.004092      0.008511     -0.001410
      2.22598      0.04749      7.92217         0.002262     -0.010943      0.001785
      5.47931      6.12715      8.00326        -0.000679     -0.000483      0.002098
      8.64847     12.14619      8.00141        -0.003458     -0.006086     -0.006869
     13.00533      6.08564      7.88099         0.007729     -0.001095      0.006291
      1.73389      3.90385      8.42675        -0.000928      0.003316     -0.000690
      4.96411      9.95705      8.39175        -0.006135     -0.006347      0.002260
      9.01274      3.76891      8.47416        -0.011187      0.003554      0.002971
     12.55539     10.12650      8.29180         0.005344     -0.006289      0.006599
      1.12870      9.71676      8.52792        -0.007663     -0.001465     -0.004374
      5.43115      3.62924      8.51952         0.007966     -0.003011      0.004023
      8.64901      9.63664      8.50976        -0.004007      0.008148     -0.000053
     13.13979      3.57678      8.52475         0.008074     -0.004965      0.001810
      0.40357      6.61867      8.98755        -0.001173     -0.001238     -0.002177
      4.73425      0.51491      8.97900        -0.003707     -0.008041      0.001182
      8.14310      6.55380      9.06667         0.009226     -0.004614     -0.002179
     12.29002      0.51016      8.98975        -0.000225     -0.009331     -0.005113
     11.45845      8.15177      9.72263        -0.010370      0.004352     -0.010982
     10.97537      5.04079     10.00936         0.002836     -0.000726      0.000197
     11.87991      8.76030     10.35080        -0.006265      0.006605      0.000351
      4.62402      7.26862     10.76779        -0.005312      0.008273     -0.011292
      5.98641      9.34917     10.85686         0.003094     -0.003771      0.008754
      3.06103      9.49539     12.23946        -0.003180     -0.001662     -0.001091
      5.68502      9.50989     12.58712        -0.002186     -0.005740     -0.002876
      2.37272      8.26441     11.14836         0.001268      0.011464     -0.008669
      3.45711      9.53079     10.51896        -0.003855      0.011972      0.006265
      7.01537      7.06575     11.29526        -0.000550      0.000920      0.002730
      4.33612      7.34663     12.49791        -0.006081      0.002724     -0.018123
      6.84444      7.34207     13.02833        -0.006188     -0.004671     -0.002878
      8.47047      9.14454     11.15736        -0.006795      0.001548      0.006788
      8.38017      9.29476     12.90527        -0.008007     -0.005983      0.003635
     10.44763      8.04107     12.54646        -0.007885     -0.001226      0.008903
      9.29476      6.81171     13.03202        -0.004702     -0.007501      0.000297
      3.27217      8.85517     11.37077        -0.003976      0.003558     -0.009239
      5.80250      8.76750     11.77847        -0.003436      0.004595     -0.005771
      4.50017      7.97860     11.60817        -0.008155     -0.008746     -0.003716
      6.99714      7.85892     12.06474        -0.008253     -0.011621     -0.001046
      8.36408      8.54943     12.08842         0.004175      0.005988      0.013237
      9.51933      7.52881     12.22255         0.000662     -0.015276     -0.004769
 -----------------------------------------------------------------------------------
    total drift:                               -0.164348     -0.285016     -0.080880


--------------------------------------------------------------------------------------------------------



  FREE ENERGIE OF THE ION-ELECTRON SYSTEM (eV)
  ---------------------------------------------------
  free  energy   TOTEN  =     -1399.89865415 eV

  energy  without entropy=    -1399.89865415  energy(sigma->0) =    -1399.89865415
 


--------------------------------------------------------------------------------------------------------


    POTLOK:  cpu time    0.7450: real time    0.7444


--------------------------------------------------------------------------------------------------------


     LOOP+:  cpu time  349.2484: real time  348.8841
    4ORBIT:  cpu time    0.0000: real time    0.0000

 total amount of memory used by VASP MPI-rank0    92394. kBytes
=======================================================================

   base      :      30000. kBytes
   nonlr-proj:       9131. kBytes
   fftplans  :       4220. kBytes
   grid      :      12288. kBytes
   one-center:        342. kBytes
   wavefun   :      36413. kBytes
 
  
  
 General timing and accounting informations for this job:
 ========================================================
  
                  Total CPU time used (sec):      430.016
                            User time (sec):      415.713
                          System time (sec):       14.303
                         Elapsed time (sec):      431.358
  
                   Maximum memory used (kb):      933128.
                   Average memory used (kb):           0.
  
                          Minor page faults:        58230
                          Major page faults:           56
                 Voluntary context switches:         5705
