       N       E                     dE             d eps       ncg     rms          rms(c)
DAV:   1    -0.137723571550E+04   -0.13772E+04   -0.13619E+00  6336   0.986E-01    0.953E-01
DAV:   2    -0.137899654968E+04   -0.17608E+01   -0.12125E+00  6176   0.955E-01    0.415E-01
DAV:   3    -0.137900652489E+04   -0.99752E-02   -0.43887E-02  6720   0.231E-01    0.278E-01
DAV:   4    -0.137900656637E+04   -0.41480E-04   -0.21858E-03  5568   0.579E-02    0.225E-01
DAV:   5    -0.137900656852E+04   -0.21515E-05   -0.20568E-04  6784   0.184E-02    0.189E-01
DAV:   6    -0.137900657764E+04   -0.91158E-05   -0.25568E-05  6592   0.745E-03    0.162E-01
DAV:   7    -0.137900658120E+04   -0.35597E-05   -0.23469E-05  6688   0.801E-03    0.131E-01
DAV:   8    -0.137900658465E+04   -0.34516E-05   -0.19052E-05  6144   0.684E-03    0.107E-01
DAV:   9    -0.137900658855E+04   -0.38991E-05   -0.55553E-06  4544   0.362E-03    0.907E-02
DAV:  10    -0.137900659222E+04   -0.36743E-05   -0.12612E-05  5792   0.569E-03    0.635E-02
DAV:  11    -0.137900659561E+04   -0.33833E-05   -0.34203E-05  6592   0.941E-03    0.245E-02
DAV:  12    -0.137900659689E+04   -0.12831E-05   -0.70708E-06  5024   0.369E-03    0.133E-02
DAV:  13    -0.137900659701E+04   -0.12061E-06   -0.76910E-07  3136   0.155E-03
   1 F= -.13982888E+04 E0= -.13982888E+04  d E =-.102554E-25  mag=     0.0000
