 vasp.5.4.4.18Apr17-6-g9f103f2a35 (build Mar 06 2019 16:23:31) complex          
  
 executed on             LinuxIFC date 2021.11.08  21:10:23
 running on  128 total cores
 distrk:  each k-point on  128 cores,    1 groups
 distr:  one band on NCORES_PER_BAND=  16 cores,    8 groups


--------------------------------------------------------------------------------------------------------


 INCAR:
 POTCAR:    PAW_PBE Zr_sv 04Jan2005               
 POTCAR:    PAW_PBE O 08Apr2002                   
 POTCAR:    PAW_PBE H 15Jun2001                   
 POTCAR:    PAW_PBE C 08Apr2002                   
 POTCAR:    PAW_PBE Zr_sv 04Jan2005               
   VRHFIN =Zr: 4s4p5s4d                                                         
   LEXCH  = PE                                                                  
   EATOM  =  1284.2219 eV,   94.3876 Ry                                         
                                                                                
   TITEL  = PAW_PBE Zr_sv 04Jan2005                                             
   LULTRA =        F    use ultrasoft PP ?                                      
   IUNSCR =        1    unscreen: 0-lin 1-nonlin 2-no                           
   RPACOR =    2.200    partial core radius                                     
   POMASS =   91.224; ZVAL   =   12.000    mass and valenz                      
   RCORE  =    2.500    outmost cutoff radius                                   
   RWIGS  =    3.070; RWIGS  =    1.625    wigner-seitz radius (au A)           
   ENMAX  =  229.898; ENMIN  =  172.424 eV                                      
   ICORE  =        3    local potential                                         
   LCOR   =        T    correct aug charges                                     
   LPAW   =        T    paw PP                                                  
   EAUG   =  461.257                                                            
   DEXC   =    0.000                                                            
   RMAX   =    2.561    core radius for proj-oper                               
   RAUG   =    1.300    factor for augmentation sphere                          
   RDEP   =    2.597    radius for radial grids                                 
   RDEPT  =    2.007    core radius for aug-charge                              
                                                                                
   Atomic configuration                                                         
   11 entries                                                                   
     n  l   j            E        occ.                                          
     1  0  0.50    -17820.0161   2.0000                                         
     2  0  0.50     -2467.0882   2.0000                                         
     2  1  1.50     -2199.6095   6.0000                                         
     3  0  0.50      -402.4863   2.0000                                         
     3  1  1.50      -315.3675   6.0000                                         
     3  2  2.50      -172.4472  10.0000                                         
     4  0  0.50       -52.4146   2.0000                                         
     5  0  0.50        -3.8421   1.0000                                         
     4  1  1.50       -30.5054   6.0000                                         
     4  2  2.50        -2.3341   3.0000                                         
     4  3  2.50        -1.3606   0.0000                                         
   Description                                                                  
     l       E           TYP  RCUT    TYP  RCUT                                 
     0    -52.4145962     23  2.200                                             
     0     -3.8421270     23  2.500                                             
     1    -30.5053914     23  2.200                                             
     1     20.4087390     23  2.200                                             
     2     -2.3340816     23  2.500                                             
     2     -0.6120942     23  2.500                                             
     3     -4.0817478     23  2.500                                             
  local pseudopotential read in
  partial core-charges read in
  partial kinetic energy density read in
  atomic valenz-charges read in
  non local Contribution for L=           0  read in
    real space projection operators read in
  non local Contribution for L=           0  read in
    real space projection operators read in
  non local Contribution for L=           1  read in
    real space projection operators read in
  non local Contribution for L=           1  read in
    real space projection operators read in
  non local Contribution for L=           2  read in
    real space projection operators read in
  non local Contribution for L=           2  read in
    real space projection operators read in
    PAW grid and wavefunctions read in
 
   number of l-projection  operators is LMAX  =           6
   number of lm-projection operators is LMMAX =          18
 
 POTCAR:    PAW_PBE O 08Apr2002                   
   VRHFIN =O: s2p4                                                              
   LEXCH  = PE                                                                  
   EATOM  =   432.3788 eV,   31.7789 Ry                                         
                                                                                
   TITEL  = PAW_PBE O 08Apr2002                                                 
   LULTRA =        F    use ultrasoft PP ?                                      
   IUNSCR =        1    unscreen: 0-lin 1-nonlin 2-no                           
   RPACOR =    1.200    partial core radius                                     
   POMASS =   16.000; ZVAL   =    6.000    mass and valenz                      
   RCORE  =    1.520    outmost cutoff radius                                   
   RWIGS  =    1.550; RWIGS  =    0.820    wigner-seitz radius (au A)           
   ENMAX  =  400.000; ENMIN  =  300.000 eV                                      
   ICORE  =        2    local potential                                         
   LCOR   =        T    correct aug charges                                     
   LPAW   =        T    paw PP                                                  
   EAUG   =  605.392                                                            
   DEXC   =    0.000                                                            
   RMAX   =    1.553    core radius for proj-oper                               
   RAUG   =    1.300    factor for augmentation sphere                          
   RDEP   =    1.550    radius for radial grids                                 
   RDEPT  =    1.329    core radius for aug-charge                              
                                                                                
   Atomic configuration                                                         
    4 entries                                                                   
     n  l   j            E        occ.                                          
     1  0  0.50      -514.6923   2.0000                                         
     2  0  0.50       -23.9615   2.0000                                         
     2  1  0.50        -9.0305   4.0000                                         
     3  2  1.50        -9.5241   0.0000                                         
   Description                                                                  
     l       E           TYP  RCUT    TYP  RCUT                                 
     0    -23.9615318     23  1.200                                             
     0     -9.5240782     23  1.200                                             
     1     -9.0304911     23  1.520                                             
     1      8.1634956     23  1.520                                             
     2     -9.5240782      7  1.500                                             
  local pseudopotential read in
  partial core-charges read in
  partial kinetic energy density read in
  kinetic energy density of atom read in
  atomic valenz-charges read in
  non local Contribution for L=           0  read in
    real space projection operators read in
  non local Contribution for L=           0  read in
    real space projection operators read in
  non local Contribution for L=           1  read in
    real space projection operators read in
  non local Contribution for L=           1  read in
    real space projection operators read in
    PAW grid and wavefunctions read in
 
   number of l-projection  operators is LMAX  =           4
   number of lm-projection operators is LMMAX =           8
 
 POTCAR:    PAW_PBE H 15Jun2001                   
   VRHFIN =H: ultrasoft test                                                    
   LEXCH  = PE                                                                  
   EATOM  =    12.4884 eV,    0.9179 Ry                                         
                                                                                
   TITEL  = PAW_PBE H 15Jun2001                                                 
   LULTRA =        F    use ultrasoft PP ?                                      
   IUNSCR =        0    unscreen: 0-lin 1-nonlin 2-no                           
   RPACOR =    0.000    partial core radius                                     
   POMASS =    1.000; ZVAL   =    1.000    mass and valenz                      
   RCORE  =    1.100    outmost cutoff radius                                   
   RWIGS  =    0.700; RWIGS  =    0.370    wigner-seitz radius (au A)           
   ENMAX  =  250.000; ENMIN  =  200.000 eV                                      
   RCLOC  =    0.701    cutoff for local pot                                    
   LCOR   =        T    correct aug charges                                     
   LPAW   =        T    paw PP                                                  
   EAUG   =  400.000                                                            
   RMAX   =    1.123    core radius for proj-oper                               
   RAUG   =    1.200    factor for augmentation sphere                          
   RDEP   =    1.112    radius for radial grids                                 
   RDEPT  =    0.926    core radius for aug-charge                              
                                                                                
   Atomic configuration                                                         
    2 entries                                                                   
     n  l   j            E        occ.                                          
     1  0  0.50        -6.4927   1.0000                                         
     2  1  0.50        -3.4015   0.0000                                         
   Description                                                                  
     l       E           TYP  RCUT    TYP  RCUT                                 
     0     -6.4927494     23  1.100                                             
     0      6.8029130     23  1.100                                             
     1     -4.0817478     23  1.100                                             
  local pseudopotential read in
  atomic valenz-charges read in
  non local Contribution for L=           0  read in
    real space projection operators read in
  non local Contribution for L=           0  read in
    real space projection operators read in
  non local Contribution for L=           1  read in
    real space projection operators read in
    PAW grid and wavefunctions read in
 
   number of l-projection  operators is LMAX  =           3
   number of lm-projection operators is LMMAX =           5
 
 POTCAR:    PAW_PBE C 08Apr2002                   
   VRHFIN =C: s2p2                                                              
   LEXCH  = PE                                                                  
   EATOM  =   147.1560 eV,   10.8157 Ry                                         
                                                                                
   TITEL  = PAW_PBE C 08Apr2002                                                 
   LULTRA =        F    use ultrasoft PP ?                                      
   IUNSCR =        1    unscreen: 0-lin 1-nonlin 2-no                           
   RPACOR =    1.200    partial core radius                                     
   POMASS =   12.011; ZVAL   =    4.000    mass and valenz                      
   RCORE  =    1.500    outmost cutoff radius                                   
   RWIGS  =    1.630; RWIGS  =    0.863    wigner-seitz radius (au A)           
   ENMAX  =  400.000; ENMIN  =  300.000 eV                                      
   ICORE  =        2    local potential                                         
   LCOR   =        T    correct aug charges                                     
   LPAW   =        T    paw PP                                                  
   EAUG   =  644.873                                                            
   DEXC   =    0.000                                                            
   RMAX   =    1.529    core radius for proj-oper                               
   RAUG   =    1.300    factor for augmentation sphere                          
   RDEP   =    1.501    radius for radial grids                                 
   RDEPT  =    1.300    core radius for aug-charge                              
                                                                                
   Atomic configuration                                                         
    4 entries                                                                   
     n  l   j            E        occ.                                          
     1  0  0.50      -273.3789   2.0000                                         
     2  0  0.50       -13.7508   2.0000                                         
     2  1  0.50        -5.2854   2.0000                                         
     3  2  1.50        -5.4423   0.0000                                         
   Description                                                                  
     l       E           TYP  RCUT    TYP  RCUT                                 
     0    -13.7508458     23  1.200                                             
     0     -8.2022199     23  1.200                                             
     1     -5.2854383     23  1.500                                             
     1     34.0145650     23  1.500                                             
     2     -5.4423304      7  1.500                                             
  local pseudopotential read in
  partial core-charges read in
  partial kinetic energy density read in
  atomic valenz-charges read in
  non local Contribution for L=           0  read in
    real space projection operators read in
  non local Contribution for L=           0  read in
    real space projection operators read in
  non local Contribution for L=           1  read in
    real space projection operators read in
  non local Contribution for L=           1  read in
    real space projection operators read in
    PAW grid and wavefunctions read in
 
   number of l-projection  operators is LMAX  =           4
   number of lm-projection operators is LMMAX =           8
 
 Optimization of the real space projectors (new method)

 maximal supplied QI-value         = 15.12
 optimisation between [QCUT,QGAM] = [ 11.34, 22.83] = [ 36.00,145.93] Ry 
 Optimized for a Real-space Cutoff    1.47 Angstroem

   l    n(q)    QCUT    max X(q) W(low)/X(q) W(high)/X(q)  e(spline) 
   0     10    11.338    12.107    0.38E-04    0.13E-04    0.27E-07
   0     10    11.338     9.948    0.69E-04    0.30E-04    0.38E-07
   1     10    11.338     3.563    0.26E-04    0.18E-04    0.40E-07
   1     10    11.338     4.524    0.25E-03    0.39E-04    0.44E-06
   2      9    11.338    87.261    0.26E-03    0.91E-05    0.26E-06
   2      9    11.338    70.950    0.25E-03    0.91E-05    0.25E-06
 Optimization of the real space projectors (new method)

 maximal supplied QI-value         = 24.76
 optimisation between [QCUT,QGAM] = [ 11.39, 22.77] = [ 36.31,145.25] Ry 
 Optimized for a Real-space Cutoff    1.00 Angstroem

   l    n(q)    QCUT    max X(q) W(low)/X(q) W(high)/X(q)  e(spline) 
   0      7    11.387    20.381    0.39E-03    0.13E-02    0.15E-06
   0      7    11.387    15.268    0.42E-03    0.14E-02    0.17E-06
   1      6    11.387     5.964    0.41E-03    0.11E-02    0.17E-06
   1      6    11.387     5.382    0.39E-03    0.87E-03    0.15E-06
 Optimization of the real space projectors (new method)

 maximal supplied QI-value         = 34.20
 optimisation between [QCUT,QGAM] = [ 11.29, 22.57] = [ 35.68,142.71] Ry 
 Optimized for a Real-space Cutoff    1.16 Angstroem

   l    n(q)    QCUT    max X(q) W(low)/X(q) W(high)/X(q)  e(spline) 
   0      8    11.287    19.460    0.40E-03    0.73E-03    0.16E-06
   0      8    11.287    12.209    0.38E-03    0.70E-03    0.15E-06
   1      7    11.287     4.655    0.22E-03    0.25E-04    0.22E-06
 Optimization of the real space projectors (new method)

 maximal supplied QI-value         = 25.13
 optimisation between [QCUT,QGAM] = [ 11.31, 22.87] = [ 35.82,146.48] Ry 
 Optimized for a Real-space Cutoff    1.00 Angstroem

   l    n(q)    QCUT    max X(q) W(low)/X(q) W(high)/X(q)  e(spline) 
   0      7    11.310   115.676    0.43E-03    0.13E-02    0.19E-06
   0      7    11.310    87.132    0.43E-03    0.13E-02    0.18E-06
   1      6    11.310     4.429    0.42E-03    0.74E-03    0.11E-06
   1      6    11.310     2.733    0.34E-03    0.55E-03    0.92E-07
  PAW_PBE Zr_sv 04Jan2005               :
 energy of atom  1       EATOM=-1284.2219
 kinetic energy error for atom=    0.0049 (will be added to EATOM!!)
  PAW_PBE O 08Apr2002                   :
 energy of atom  2       EATOM= -432.3788
 kinetic energy error for atom=    0.0224 (will be added to EATOM!!)
  PAW_PBE H 15Jun2001                   :
 energy of atom  3       EATOM=  -12.4884
 kinetic energy error for atom=    0.0020 (will be added to EATOM!!)
  PAW_PBE C 08Apr2002                   :
 energy of atom  4       EATOM= -147.1560
 kinetic energy error for atom=    0.0076 (will be added to EATOM!!)
 
 
 POSCAR: Zr   O    H    C                        
  positions in direct lattice
  velocities in cartesian coordinates
  No initial velocities read in
 exchange correlation table for  LEXCH =        8
   RHO(1)=    0.500       N(1)  =     2000
   RHO(2)=  100.500       N(2)  =     4000

 VTST: version 3.2, (02/03/18)

 CHAIN: initializing optimizer
 
 OPT: Using Conjugate-Gradient optimizer
 OPT: CG, Init
 OPT: CG, FDSTEP      0.005000
 OPT: CG, MAXMOVE      0.200000
 
 CHAIN: Read ICHAIN            2
 
 POSCAR: Zr   O    H    C                        
  positions in direct lattice
  velocities in cartesian coordinates
  No initial velocities read in
 CHAIN: Running the Dimer method

 Dimer: -----------------
 Dimer: Input Parameters
 Dimer:   Seed      0
 Dimer: RotMax      4
 Dimer:     dR      0.005000
 Dimer:  FNMax      1.000000
 Dimer:  FNMin      0.010000
 Dimer: -----------------
 


--------------------------------------------------------------------------------------------------------


 ion  position               nearest neighbor table
   1  0.088  0.321  0.038-  78 2.10  62 2.10  50 2.18  74 2.19  61 2.26  54 2.30  16 3.37   6 3.50
                            12 3.52  13 3.65
   2  0.338  0.821  0.038-  79 2.10  63 2.10  51 2.18  75 2.19  58 2.26  55 2.30  13 3.37   7 3.50
                             9 3.52  14 3.65
   3  0.588  0.321  0.038-  80 2.10  64 2.10  52 2.18  76 2.19  59 2.26  56 2.30  14 3.37   8 3.50
                            10 3.52  15 3.65
   4  0.838  0.821  0.038-  81 2.10  65 2.10  53 2.18  77 2.19  60 2.26  57 2.30  15 3.37   5 3.50
                            11 3.52  16 3.65
   5  0.070  0.834  0.049-  82 2.07  66 2.10  65 2.18  58 2.19  57 2.22  70 2.30  12 3.37  17 3.47
                             4 3.50  16 3.52   9 3.65
   6  0.320  0.334  0.049-  83 2.06  67 2.10  62 2.18  59 2.19  54 2.22  71 2.30   9 3.37  18 3.48
                             1 3.50  13 3.52  10 3.65
   7  0.570  0.834  0.049-  84 2.06  68 2.10  63 2.18  60 2.19  55 2.22  72 2.30  10 3.37  19 3.49
                             2 3.50  14 3.52  11 3.65
   8  0.820  0.334  0.049-  85 2.08  69 2.10  64 2.18  61 2.19  56 2.22  73 2.30  11 3.37   3 3.50
                            20 3.51  15 3.52  12 3.65
   9  0.238  0.068  0.057-  62 2.10  86 2.16  67 2.18  70 2.19  75 2.22  58 2.30   6 3.37  17 3.48
                            14 3.50  22 3.52   2 3.52   5 3.65
  10  0.488  0.568  0.057-  63 2.10  87 2.17  68 2.18  71 2.19  76 2.22  59 2.30   7 3.37  18 3.48
                            15 3.50  23 3.52   3 3.52   6 3.65
  11  0.738  0.068  0.057-  64 2.10  69 2.18  88 2.18  72 2.19  77 2.22  60 2.30   8 3.37  19 3.47
                            16 3.50   4 3.52  24 3.52   7 3.65
  12  0.988  0.568  0.057-  65 2.10  66 2.18  89 2.18  73 2.19  74 2.22  61 2.30   5 3.37  13 3.50
                             1 3.52  21 3.53  20 3.53   8 3.65
  13  0.220  0.581  0.068-  51 2.10  66 2.10  79 2.18  54 2.19  71 2.26  90 2.26  74 2.30   2 3.37
                            21 3.49  26 3.50  12 3.50  18 3.50   6 3.52   1 3.65
  14  0.470  0.081  0.068-  52 2.10  67 2.10  80 2.18  55 2.19  72 2.26  91 2.27  75 2.30   3 3.37
                            27 3.48  22 3.49   9 3.50  19 3.52   7 3.52   2 3.65
  15  0.720  0.581  0.068-  53 2.10  68 2.10  81 2.18  56 2.19  73 2.26  92 2.26  76 2.30   4 3.37
                            23 3.49  28 3.50  10 3.50   8 3.52  20 3.54   3 3.65
  16  0.970  0.081  0.068-  50 2.10  69 2.10  78 2.18  57 2.19  70 2.26  93 2.26  77 2.30   1 3.37
                            24 3.50  11 3.50  17 3.50  25 3.50   5 3.52   4 3.65
  17  0.106  0.983  0.171-  94 2.09 110 2.13  82 2.16  70 2.19 106 2.19  93 2.23  86 2.31  32 3.39
                             5 3.47   9 3.48  16 3.50  22 3.52  25 3.54  29 3.67
  18  0.357  0.484  0.171-  95 2.09 111 2.13  83 2.16  71 2.19 107 2.19  90 2.23  87 2.29  29 3.37
                             6 3.48  10 3.48  13 3.50  23 3.52  26 3.54  30 3.65
  19  0.608  0.985  0.171-  96 2.09 112 2.14  84 2.18  72 2.19 108 2.20  91 2.23  88 2.28  30 3.39
                            11 3.47   7 3.49  24 3.49  14 3.52  27 3.52  31 3.70
  20  0.856  0.483  0.173-  97 2.10 113 2.11  85 2.18 109 2.20  92 2.23  73 2.24  89 2.33  31 3.31
                            28 3.50   8 3.51  12 3.53  21 3.53  15 3.54  32 3.65
  21  0.089  0.495  0.183- 114 2.09  98 2.11  97 2.17  90 2.18  74 2.24  89 2.27 102 2.29  25 3.37
                            13 3.49  32 3.51  12 3.53  20 3.53  26 3.62  33 3.64
  22  0.339  0.995  0.182- 115 2.10  99 2.11  94 2.17  91 2.19  75 2.23 103 2.26  86 2.28  26 3.38
                            14 3.49  29 3.51   9 3.52  17 3.52  34 3.61  27 3.63
  23  0.589  0.492  0.182- 100 2.08 116 2.11  95 2.17  92 2.18  76 2.22  87 2.29 104 2.31  27 3.36
                            15 3.49  35 3.51  18 3.52  10 3.52  30 3.56  28 3.69
  24  0.839  0.996  0.183- 117 2.10 101 2.11  96 2.18  93 2.18  77 2.25  88 2.26 105 2.28  28 3.37
                            19 3.49  16 3.50  11 3.52  31 3.54  36 3.62  25 3.64
  25  0.005  0.230  0.191-  78 2.10  97 2.10 121 2.17  98 2.19 105 2.21 106 2.29  93 2.30  21 3.37
                            37 3.45  16 3.50  17 3.54  29 3.55  24 3.64  36 3.65
  26  0.253  0.730  0.191-  94 2.10  79 2.10 102 2.18  99 2.20 118 2.20 107 2.29  90 2.29  22 3.38
                            38 3.46  13 3.50  18 3.54  30 3.54  21 3.62  33 3.65
  27  0.504  0.229  0.191-  80 2.09  95 2.11 100 2.18 119 2.19 103 2.19  91 2.29 108 2.30  23 3.36
                            39 3.46  14 3.48  19 3.52  31 3.59  22 3.63  34 3.65
  28  0.758  0.730  0.191-  81 2.08  96 2.11 101 2.16 120 2.22 104 2.23 109 2.24  92 2.30  24 3.37
                            35 3.49  15 3.50  32 3.50  20 3.50  40 3.55  23 3.69
  29  0.240  0.242  0.201-  98 2.10  83 2.10 122 2.19 103 2.21 111 2.21  86 2.23 106 2.29  18 3.37
                            37 3.41  42 3.50  22 3.51  25 3.55  34 3.63  17 3.67
  30  0.488  0.743  0.200-  99 2.08  84 2.09 112 2.20 123 2.20  87 2.22 104 2.25 107 2.29  19 3.39
                            38 3.44  43 3.49  35 3.50  26 3.54  23 3.56  18 3.65
  31  0.741  0.246  0.204-  85 2.11 100 2.11 113 2.12 105 2.22 124 2.24  88 2.29 108 2.32  20 3.31
                            39 3.44  24 3.54  44 3.57  27 3.59  36 3.62  19 3.70
  32  0.989  0.740  0.202- 101 2.11  82 2.13 110 2.19 102 2.21 125 2.21  89 2.22 109 2.27  17 3.39
                            41 3.47  28 3.50  40 3.50  21 3.51  33 3.64  20 3.65
  33  0.123  0.641  0.314- 142 2.02 126 2.16 138 2.17 114 2.20 125 2.25 118 2.38 102 2.42  45 3.23
                            41 3.48  38 3.54  21 3.64  32 3.64  26 3.65  46 3.72
  34  0.372  0.140  0.313- 143 2.03 127 2.14 139 2.18 115 2.20 122 2.24 119 2.36 103 2.43  46 3.23
                            42 3.49  39 3.53  22 3.61  29 3.63  27 3.65  47 3.68
  35  0.623  0.648  0.304- 140 2.16 144 2.16 128 2.17 123 2.20 116 2.21 104 2.21 120 2.25  49 3.29
                            47 3.41  43 3.43  28 3.49  30 3.50  23 3.51  40 3.56  48 3.71
  36  0.875  0.139  0.314- 145 2.03 129 2.13 141 2.13 117 2.23 124 2.29 105 2.38 121 2.43  48 3.22
                            44 3.43  37 3.54  24 3.62  31 3.62  25 3.65  45 3.74
  37  0.110  0.161  0.312- 130 2.09 121 2.13 106 2.16 122 2.16 129 2.17 134 2.17  29 3.41  25 3.45
                            41 3.45  45 3.51  36 3.54  42 3.58
  38  0.359  0.660  0.313- 131 2.10 126 2.15 107 2.16 118 2.16 135 2.16 123 2.17  30 3.44  42 3.45
                            26 3.46  46 3.53  33 3.54  43 3.58
  39  0.606  0.159  0.314- 136 2.10 132 2.11 108 2.15 127 2.16 124 2.17 119 2.20  31 3.44  43 3.44
                            27 3.46  47 3.47  34 3.53  44 3.67
  40  0.859  0.661  0.318- 133 2.11 125 2.18 120 2.20 137 2.21 146 2.24 128 2.25 109 2.27  32 3.50
                            44 3.50  48 3.51  28 3.55  35 3.56  41 3.60  49 3.68
  41  0.027  0.889  0.324- 110 2.05 138 2.15 129 2.16 137 2.18 130 2.20 125 2.30  37 3.45  32 3.47
                            33 3.48  46 3.51  40 3.60
  42  0.276  0.388  0.325- 111 2.06 139 2.13 126 2.14 131 2.24 134 2.26 122 2.29  38 3.45  34 3.49
                            29 3.50  47 3.50  37 3.58
  43  0.525  0.888  0.325- 112 2.06 127 2.14 140 2.15 132 2.18 135 2.27 123 2.29  35 3.43  39 3.44
                            30 3.49  48 3.55  38 3.58
  44  0.782  0.383  0.334- 147 2.07 141 2.12 133 2.16 113 2.24 128 2.26 124 2.27 136 2.56  49 3.26
                            36 3.43  45 3.45  40 3.50  31 3.57  39 3.67
  45  0.011  0.407  0.336- 142 2.03 114 2.07 133 2.16 141 2.23 134 2.30 121 2.30  33 3.23  44 3.45
                            37 3.51  36 3.74
  46  0.259  0.907  0.336- 143 2.02 115 2.07 130 2.15 138 2.28 118 2.29 135 2.31  34 3.23  41 3.51
                            38 3.53  33 3.72
  47  0.508  0.402  0.334- 116 2.07 136 2.14 131 2.16 144 2.20 119 2.24 139 2.25  35 3.41  39 3.47
                            42 3.50  34 3.68  49 3.84
  48  0.759  0.908  0.336- 145 2.01 117 2.05 132 2.17 137 2.26 120 2.32 140 2.35  36 3.22  40 3.51
                            43 3.55  35 3.71
  49  0.696  0.548  0.422- 157 1.90 147 1.93 144 2.12 146 2.19 128 2.32 166 2.74 165 2.77  44 3.26
                            35 3.29  40 3.68  47 3.84
  50  0.024  0.173  0.000-  16 2.10   1 2.18
  51  0.274  0.673  0.000-  13 2.10   2 2.18
  52  0.524  0.173  0.000-  14 2.10   3 2.18
  53  0.774  0.673  0.000-  15 2.10   4 2.18
  54  0.215  0.432  0.016-  13 2.19   6 2.22   1 2.30
  55  0.465  0.932  0.016-  14 2.19   7 2.22   2 2.30
  56  0.715  0.432  0.016-  15 2.19   8 2.22   3 2.30
  57  0.965  0.932  0.016-  16 2.19   5 2.22   4 2.30
  58  0.207  0.891  0.025-   5 2.19   2 2.26   9 2.30
  59  0.457  0.391  0.025-   6 2.19   3 2.26  10 2.30
  60  0.707  0.891  0.025-   7 2.19   4 2.26  11 2.30
  61  0.957  0.391  0.025-   8 2.19   1 2.26  12 2.30
  62  0.197  0.226  0.044-   9 2.10   1 2.10   6 2.18
  63  0.447  0.726  0.044-  10 2.10   2 2.10   7 2.18
  64  0.697  0.226  0.044-  11 2.10   3 2.10   8 2.18
  65  0.947  0.726  0.044-  12 2.10   4 2.10   5 2.18
  66  0.111  0.675  0.062-   5 2.10  13 2.10  12 2.18
  67  0.361  0.175  0.062-   6 2.10  14 2.10   9 2.18
  68  0.611  0.675  0.062-   7 2.10  15 2.10  10 2.18
  69  0.861  0.175  0.062-   8 2.10  16 2.10  11 2.18
  70  0.101  0.010  0.081-  17 2.19   9 2.19  16 2.26   5 2.30
  71  0.351  0.510  0.081-  18 2.19  10 2.19  13 2.26   6 2.30
  72  0.601  0.010  0.081-  19 2.19  11 2.19  14 2.26   7 2.30
  73  0.851  0.510  0.081-  12 2.19  20 2.24  15 2.26   8 2.30
  74  0.093  0.470  0.090-   1 2.19  12 2.22  21 2.24  13 2.30
  75  0.343  0.970  0.090-   2 2.19   9 2.22  22 2.23  14 2.30
  76  0.593  0.470  0.090-   3 2.19  23 2.22  10 2.22  15 2.30
  77  0.843  0.970  0.090-   4 2.19  11 2.22  24 2.25  16 2.30
  78  0.034  0.229  0.106-   1 2.10  25 2.10  16 2.18
  79  0.284  0.729  0.106-   2 2.10  26 2.10  13 2.18
  80  0.534  0.229  0.106-  27 2.09   3 2.10  14 2.18
  81  0.784  0.729  0.106-  28 2.08   4 2.10  15 2.18
  82  0.045  0.833  0.134-   5 2.07  32 2.13  17 2.16
  83  0.296  0.334  0.133-   6 2.06  29 2.10  18 2.16
  84  0.546  0.834  0.133-   7 2.06  30 2.09  19 2.18
  85  0.796  0.333  0.134-   8 2.08  31 2.11  20 2.18
  86  0.231  0.093  0.146-   9 2.16  29 2.23  22 2.28  17 2.31
  87  0.482  0.593  0.147-  10 2.17  30 2.22  23 2.29  18 2.29
  88  0.732  0.094  0.147-  11 2.18  24 2.26  19 2.28  31 2.29
  89  0.982  0.593  0.147-  12 2.18  32 2.22  21 2.27  20 2.33
  90  0.226  0.552  0.161-  21 2.18  18 2.23  13 2.26  26 2.29
  91  0.476  0.051  0.161-  22 2.19  19 2.23  14 2.27  27 2.29
  92  0.725  0.552  0.161-  23 2.18  20 2.23  15 2.26  28 2.30
  93  0.975  0.052  0.161-  24 2.18  17 2.23  16 2.26  25 2.30
  94  0.215  0.890  0.181-  17 2.09  26 2.10  22 2.17
  95  0.465  0.389  0.180-  18 2.09  27 2.11  23 2.17
  96  0.715  0.890  0.181-  19 2.09  28 2.11  24 2.18
  97  0.965  0.390  0.182-  20 2.10  25 2.10  21 2.17
  98  0.130  0.335  0.192-  29 2.10  21 2.11  25 2.19
  99  0.379  0.835  0.193-  30 2.08  22 2.11  26 2.20
 100  0.629  0.335  0.194-  23 2.08  31 2.11  27 2.18
 101  0.880  0.837  0.194-  24 2.11  32 2.11  28 2.16
 102  0.118  0.671  0.215-  26 2.18  32 2.21  21 2.29  33 2.42
 103  0.367  0.170  0.213-  27 2.19  29 2.21  22 2.26  34 2.43
 104  0.618  0.671  0.213-  35 2.21  28 2.23  30 2.25  23 2.31
 105  0.868  0.170  0.216-  25 2.21  31 2.22  24 2.28  36 2.38
 106  0.116  0.130  0.224-  37 2.16  17 2.19  29 2.29  25 2.29
 107  0.364  0.631  0.224-  38 2.16  18 2.19  26 2.29  30 2.29
 108  0.615  0.131  0.225-  39 2.15  19 2.20  27 2.30  31 2.32
 109  0.864  0.632  0.225-  20 2.20  28 2.24  32 2.27  40 2.27
 110  0.047  0.893  0.240-  41 2.05  17 2.13  32 2.19
 111  0.298  0.395  0.241-  42 2.06  18 2.13  29 2.21
 112  0.547  0.894  0.240-  43 2.06  19 2.14  30 2.20
 113  0.796  0.394  0.241-  20 2.11  31 2.12  44 2.24
 114  0.070  0.492  0.269-  45 2.07  21 2.09  33 2.20
 115  0.315  0.992  0.268-  46 2.07  22 2.10  34 2.20
 116  0.562  0.494  0.268-  47 2.07  23 2.11  35 2.21
 117  0.811  0.994  0.268-  48 2.05  24 2.10  36 2.23
 118  0.252  0.750  0.283-  38 2.16  26 2.20  46 2.29  33 2.38
 119  0.498  0.250  0.281-  27 2.19  39 2.20  47 2.24  34 2.36
 120  0.751  0.749  0.283-  40 2.20  28 2.22  35 2.25  48 2.32
 121  0.005  0.251  0.282-  37 2.13  25 2.17  45 2.30  36 2.43
 122  0.246  0.214  0.291-  37 2.16  29 2.19  34 2.24  42 2.29
 123  0.494  0.713  0.290-  38 2.17  35 2.20  30 2.20  43 2.29
 124  0.744  0.215  0.296-  39 2.17  31 2.24  44 2.27  36 2.29
 125  0.995  0.712  0.293-  40 2.18  32 2.21  33 2.25  41 2.30
 126  0.239  0.554  0.329-  42 2.14  38 2.15  33 2.16
 127  0.486  0.052  0.327-  34 2.14  43 2.14  39 2.16
 128  0.732  0.552  0.328-  35 2.17  40 2.25  44 2.26  49 2.32
 129  0.990  0.055  0.328-  36 2.13  41 2.16  37 2.17
 130  0.147  0.003  0.331-  37 2.09  46 2.15  41 2.20
 131  0.398  0.505  0.334-  38 2.10  47 2.16  42 2.24
 132  0.643  0.001  0.334-  39 2.11  48 2.17  43 2.18
 133  0.898  0.500  0.327-  40 2.11  45 2.16  44 2.16
 134  0.138  0.320  0.352-  37 2.17  42 2.26  45 2.30
 135  0.386  0.819  0.352-  38 2.16  43 2.27  46 2.31
 136  0.620  0.314  0.353-  39 2.10  47 2.14  44 2.56
 137  0.890  0.833  0.346-  41 2.18  40 2.21  48 2.26
 138  0.132  0.799  0.356-  41 2.15  33 2.17  46 2.28
 139  0.381  0.299  0.355-  42 2.13  34 2.18  47 2.25
 140  0.629  0.794  0.355-  43 2.15  35 2.16  48 2.35
 141  0.891  0.294  0.356-  44 2.12  36 2.13  45 2.23
 142  0.066  0.543  0.375-  33 2.02  45 2.03
 143  0.316  0.043  0.375-  46 2.02  34 2.03
 144  0.577  0.547  0.375-  49 2.12  35 2.16  47 2.20
 145  0.816  0.042  0.375-  48 2.01  36 2.03
 146  0.811  0.666  0.407- 148 0.97  49 2.19  40 2.24
 147  0.761  0.419  0.417-  49 1.93  44 2.07
 148  0.841  0.724  0.430- 146 0.97
 149  0.416  0.550  0.548- 164 1.10
 150  0.547  0.617  0.590- 163 1.11
 151  0.508  0.336  0.536- 162 1.10
 152  0.604  0.503  0.571- 163 1.10
 153  0.392  0.346  0.537- 162 1.10
 154  0.455  0.377  0.598- 162 1.10
 155  0.561  0.670  0.482- 165 1.10
 156  0.472  0.506  0.488- 164 1.10
 157  0.607  0.488  0.473-  49 1.90
 158  0.738  0.657  0.543- 166 1.10
 159  0.782  0.820  0.477- 167 1.10
 160  0.703  0.861  0.524- 167 1.10
 161  0.669  0.820  0.456- 167 1.10
 162  0.456  0.384  0.553- 153 1.10 154 1.10 151 1.10 164 1.53
 163  0.560  0.562  0.555- 152 1.10 150 1.11 165 1.51 164 1.55
 164  0.471  0.504  0.534- 156 1.10 149 1.10 162 1.53 163 1.55
 165  0.607  0.634  0.511- 155 1.10 166 1.38 163 1.51  49 2.77
 166  0.692  0.685  0.512- 158 1.10 165 1.38 167 1.51  49 2.74
 167  0.713  0.801  0.491- 161 1.10 159 1.10 160 1.10 166 1.51
 
  Warning from LATTYP: Monoclinic adjustement (A1->A3, A2->A1, A3->A2)!
  Warning from LATTYP: Got some problem with cell dimensions!
  Tried to take original basis but could not verify dimensions!
  LATTYP: Found a simple monoclinic cell.
 ALAT       =    18.5584556648
 B/A-ratio  =     1.2917238965
 C/A-ratio  =     1.7011970181
 COS(beta)  =    -0.9496615564
  
  Lattice vectors:
  
 A1 = ( -14.0305058395, -12.1474763861,   0.0000000000)
 A2 = (   0.0000000000,   0.0000000000, -23.9724006653)
 A3 = (  29.1411063110,  12.1474763861,   0.0000000000)


Analysis of symmetry for initial positions (statically):
=====================================================================
 Subroutine PRICEL returns:
 Original cell was already a primitive cell.
 

 Routine SETGRP: Setting up the symmetry group for a 
 simple monoclinic supercell.


 Subroutine GETGRP returns: Found  1 space group operations
 (whereof  1 operations were pure point group operations)
 out of a pool of  4 trial point group operations.


The static configuration has the point symmetry C_1 .


Analysis of symmetry for dynamics (positions and initial velocities):
=====================================================================
 Subroutine PRICEL returns:
 Original cell was already a primitive cell.
 

 Routine SETGRP: Setting up the symmetry group for a 
 simple monoclinic supercell.


 Subroutine GETGRP returns: Found  1 space group operations
 (whereof  1 operations were pure point group operations)
 out of a pool of  4 trial point group operations.


The dynamic configuration has the point symmetry C_1 .


Analysis of constrained symmetry for selective dynamics:
=====================================================================
 Subroutine PRICEL returns:
 Original cell was already a primitive cell.
 

 Routine SETGRP: Setting up the symmetry group for a 
 simple monoclinic supercell.


 Subroutine GETGRP returns: Found  1 space group operations
 (whereof  1 operations were pure point group operations)
 out of a pool of  4 trial point group operations.


The constrained configuration has the point symmetry C_1 .


Analysis of structural, dynamic, and magnetic symmetry:
=====================================================================
 Subroutine PRICEL returns:
 Original cell was already a primitive cell.
 

 Routine SETGRP: Setting up the symmetry group for a 
 simple monoclinic supercell.


 Subroutine GETGRP returns: Found  1 space group operations
 (whereof  1 operations were pure point group operations)
 out of a pool of  4 trial point group operations.


The magnetic configuration has the point symmetry C_1 .


 Subroutine INISYM returns: Found  1 space group operations
 (whereof  1 operations are pure point group operations),
 and found     1 'primitive' translations

 
 
 KPOINTS: Monkhorst Pack                          

Automatic generation of k-mesh.
Space group operators:
 irot       det(A)        alpha          n_x          n_y          n_z        tau_x        tau_y        tau_z
    1     1.000000     0.000000     1.000000     0.000000     0.000000     0.000000     0.000000     0.000000
 
 Subroutine IBZKPT returns following result:
 ===========================================
 
 Found      2 irreducible k-points:
 
 Following reciprocal coordinates:
            Coordinates               Weight
  0.250000  0.250000  0.000000      2.000000
 -0.250000  0.250000  0.000000      2.000000
 
 Following cartesian coordinates:
            Coordinates               Weight
  0.016545  0.022051  0.000000      2.000000
 -0.016545  0.019109  0.000000      2.000000
 


--------------------------------------------------------------------------------------------------------




 Dimension of arrays:
   k-points           NKPTS =      2   k-points in BZ     NKDIM =      2   number of bands    NBANDS=    640
   number of dos      NEDOS =    301   number of ions     NIONS =    167
   non local maximal  LDIM  =      6   non local SUM 2l+1 LMDIM =     18
   total plane-waves  NPLWV = 823200
   max r-space proj   IRMAX =   2561   max aug-charges    IRDMAX=   7978
   dimension x,y,z NGX =    84 NGY =   70 NGZ =  140
   dimension x,y,z NGXF=   168 NGYF=  140 NGZF=  280
   support grid    NGXF=   168 NGYF=  140 NGZF=  280
   ions per type =              49  98  14   6
   NGX,Y,Z   is equivalent  to a cutoff of   9.24,  9.54,  9.71 a.u.
   NGXF,Y,Z  is equivalent  to a cutoff of  18.48, 19.08, 19.42 a.u.

 SYSTEM =  mZrO2_n111_dimer                        
 POSCAR =  Zr   O    H    C                        

 Startparameter for this run:
   NWRITE =      2    write-flag & timer
   PREC   = normal    normal or accurate (medium, high low for compatibility)
   ISTART =      1    job   : 0-new  1-cont  2-samecut
   ICHARG =      1    charge: 1-file 2-atom 10-const
   ISPIN  =      2    spin polarized calculation?
   LNONCOLLINEAR =      F non collinear calculations
   LSORBIT =      F    spin-orbit coupling
   INIWAV =      1    electr: 0-lowe 1-rand  2-diag
   LASPH  =      F    aspherical Exc in radial PAW
   METAGGA=      F    non-selfconsistent MetaGGA calc.

 Electronic Relaxation 1
   ENCUT  =  500.0 eV  36.75 Ry    6.06 a.u.  27.55 22.24 43.71*2*pi/ulx,y,z
   ENINI  =  500.0     initial cutoff
   ENAUG  =  644.9 eV  augmentation charge cutoff
   NELM   =    300;   NELMIN=  2; NELMDL=  0     # of ELM steps 
   EDIFF  = 0.1E-05   stopping-criterion for ELM
   LREAL  =      T    real-space projection
   NLSPLINE    = F    spline interpolate recip. space projectors
   LCOMPAT=      F    compatible to vasp.4.4
   GGA_COMPAT  = T    GGA compatible to vasp.4.4-vasp.4.6
   LMAXPAW     = -100 max onsite density
   LMAXMIX     =    2 max onsite mixed and CHGCAR
   VOSKOWN=      0    Vosko Wilk Nusair interpolation
   ROPT   =   -0.00050  -0.00050  -0.00050  -0.00050
 Ionic relaxation
   EDIFFG = -.5E-01   stopping-criterion for IOM
   NSW    =      0    number of steps for IOM
   NBLOCK =      1;   KBLOCK =      1    inner block; outer block 
   IBRION =     -1    ionic relax: 0-MD 1-quasi-New 2-CG
   NFREE  =      0    steps in history (QN), initial steepest desc. (CG)
   ISIF   =      2    stress and relaxation
   IWAVPR =     10    prediction:  0-non 1-charg 2-wave 3-comb
   ISYM   =      2    0-nonsym 1-usesym 2-fastsym
   LCORR  =      T    Harris-Foulkes like correction to forces

   POTIM  = 0.0000    time-step for ionic-motion
   TEIN   =    0.0    initial temperature
   TEBEG  =    0.0;   TEEND  =   0.0 temperature during run
   SMASS  =  -3.00    Nose mass-parameter (am)
   estimated Nose-frequenzy (Omega)   =  0.10E-29 period in steps =  0.00 mass=  -0.522E-26a.u.
   SCALEE = 1.0000    scale energy and forces
   NPACO  =    256;   APACO  = 16.0  distance and # of slots for P.C.
   PSTRESS=    0.0 pullay stress

  Mass of Ions in am
   POMASS =  91.22 16.00  1.00 12.01
  Ionic Valenz
   ZVAL   =  12.00  6.00  1.00  4.00
  Atomic Wigner-Seitz radii
   RWIGS  =  -1.00 -1.00 -1.00 -1.00
  virtual crystal weights 
   VCA    =   1.00  1.00  1.00  1.00
   NELECT =    1214.0000    total number of electrons
   NUPDOWN=      -1.0000    fix difference up-down

 DOS related values:
   EMIN   =  10.00;   EMAX   =-10.00  energy-range for DOS
   EFERMI =   0.00
   ISMEAR =     0;   SIGMA  =   0.05  broadening in eV -4-tet -1-fermi 0-gaus

 Electronic relaxation 2 (details)
   IALGO  =     38    algorithm
   LDIAG  =      T    sub-space diagonalisation (order eigenvalues)
   LSUBROT=      F    optimize rotation matrix (better conditioning)
   TURBO    =      0    0=normal 1=particle mesh
   IRESTART =      0    0=no restart 2=restart with 2 vectors
   NREBOOT  =      0    no. of reboots
   NMIN     =      0    reboot dimension
   EREF     =   0.00    reference energy to select bands
   IMIX   =      4    mixing-type and parameters
     AMIX     =   0.40;   BMIX     =  1.00
     AMIX_MAG =   1.60;   BMIX_MAG =  1.00
     AMIN     =   0.10
     WC   =   100.;   INIMIX=   1;  MIXPRE=   1;  MAXMIX= -45

 Intra band minimization:
   WEIMIN = 0.0000     energy-eigenvalue tresh-hold
   EBREAK =  0.39E-09  absolut break condition
   DEPER  =   0.30     relativ break condition  

   TIME   =   0.40     timestep for ELM

  volume/ion in A,a.u.               =      26.35       177.81
  Fermi-wavevector in a.u.,A,eV,Ry     =   1.065748  2.013972 15.453760  1.135819
  Thomas-Fermi vector in A             =   2.201310
 
 Write flags
   LWAVE        =      T    write WAVECAR
   LDOWNSAMPLE  =      F    k-point downsampling of WAVECAR
   LCHARG       =      T    write CHGCAR
   LVTOT        =      F    write LOCPOT, total local potential
   LVHAR        =      F    write LOCPOT, Hartree potential only
   LELF         =      F    write electronic localiz. function (ELF)
   LORBIT       =      0    0 simple, 1 ext, 2 COOP (PROOUT), +10 PAW based schemes


 Dipole corrections
   LMONO  =      F    monopole corrections only (constant potential shift)
   LDIPOL =      F    correct potential (dipole corrections)
   IDIPOL =      3    1-x, 2-y, 3-z, 4-all directions 
   EPSILON=  1.0000000 bulk dielectric constant

 LDA+U is selected, type is set to LDAUTYPE =  2
   angular momentum for each species LDAUL =     2   -1   -1   -1
   U (eV)           for each species LDAUU =   4.0  0.0  0.0  0.0
   J (eV)           for each species LDAUJ =   0.0  0.0  0.0  0.0
 Exchange correlation treatment:
   GGA     =    --    GGA type
   LEXCH   =     8    internal setting for exchange type
   VOSKOWN=      0    Vosko Wilk Nusair interpolation
   LHFCALC =     F    Hartree Fock is set to
   LHFONE  =     F    Hartree Fock one center treatment
   AEXX    =    0.0000 exact exchange contribution

 Linear response parameters
   LEPSILON=     F    determine dielectric tensor
   LRPA    =     F    only Hartree local field effects (RPA)
   LNABLA  =     F    use nabla operator in PAW spheres
   LVEL    =     F    velocity operator in full k-point grid
   LINTERFAST=   F  fast interpolation
   KINTER  =     0    interpolate to denser k-point grid
   CSHIFT  =0.1000    complex shift for real part using Kramers Kronig
   OMEGAMAX=  -1.0    maximum frequency
   DEG_THRESHOLD= 0.2000000E-02 threshold for treating states as degnerate
   RTIME   =   -0.100 relaxation time in fs
  (WPLASMAI=    0.000 imaginary part of plasma frequency in eV, 0.658/RTIME)
   DFIELD  = 0.0000000 0.0000000 0.0000000 field for delta impulse in time
 
 Orbital magnetization related:
   ORBITALMAG=     F  switch on orbital magnetization
   LCHIMAG   =     F  perturbation theory with respect to B field
   DQ        =  0.001000  dq finite difference perturbation B field
   LLRAUG    =     F  two centre corrections for induced B field



--------------------------------------------------------------------------------------------------------


 Static calculation
 charge density and potential will be updated during run
 spin polarized calculation
 Variant of blocked Davidson
 Davidson routine will perform the subspace rotation
 perform sub-space diagonalisation
    after iterative eigenvector-optimisation
 modified Broyden-mixing scheme, WC =      100.0
 initial mixing is a Kerker type mixing with AMIX =  0.4000 and BMIX =      1.0000
 Hartree-type preconditioning will be used
 using additional bands           33
 real space projection scheme for non local part
 use partial core corrections
 calculate Harris-corrections to forces 
   (improved forces if not selfconsistent)
 use gradient corrections 
 use of overlap-Matrix (Vanderbilt PP)
 Gauss-broadening in eV      SIGMA  =   0.05


--------------------------------------------------------------------------------------------------------


  energy-cutoff  :      500.00
  volume of cell :     4400.27
      direct lattice vectors                 reciprocal lattice vectors
    15.110600471  0.000000000  0.000000000     0.066178707  0.005884289  0.000000000
    -1.080094632 12.147476386  0.000000000     0.000000000  0.082321625  0.000000000
     0.000000000  0.000000000 23.972400665     0.000000000  0.000000000  0.041714637

  length of vectors
    15.110600471 12.195400238 23.972400665     0.066439793  0.082321625  0.041714637


 
 old parameters found on file WAVECAR:
  energy-cutoff  :      500.00
  volume of cell :     4400.27
      direct lattice vectors                 reciprocal lattice vectors
    15.110600471  0.000000000  0.000000000     0.066178707  0.005884289  0.000000000
    -1.080094632 12.147476386  0.000000000     0.000000000  0.082321625  0.000000000
     0.000000000  0.000000000 23.972400665     0.000000000  0.000000000  0.041714637

  length of vectors

 
 k-points in units of 2pi/SCALE and weight: Monkhorst Pack                          
   0.01654468  0.02205148  0.00000000       0.500
  -0.01654468  0.01910933  0.00000000       0.500
 
 k-points in reciprocal lattice and weights: Monkhorst Pack                          
   0.25000000  0.25000000  0.00000000       0.500
  -0.25000000  0.25000000  0.00000000       0.500
 
 position of ions in fractional coordinates (direct lattice) 
   0.08848000  0.32082999  0.03824000
   0.33847998  0.82083000  0.03824000
   0.58847999  0.32082999  0.03824000
   0.83848001  0.82083000  0.03824000
   0.07020001  0.83354995  0.04873000
   0.32019998  0.33355000  0.04873000
   0.57020004  0.83354995  0.04873000
   0.82020001  0.33355000  0.04873000
   0.23783000  0.06778000  0.05703000
   0.48783004  0.56778001  0.05703000
   0.73783001  0.06778000  0.05703000
   0.98782997  0.56778001  0.05703000
   0.21954999  0.58051001  0.06752000
   0.46955000  0.08051000  0.06752000
   0.71954999  0.58051001  0.06752000
   0.96955000  0.08051000  0.06752000
   0.10598713  0.98276261  0.17096225
   0.35650221  0.48359309  0.17109478
   0.60781587  0.98457115  0.17129199
   0.85550341  0.48253540  0.17328738
   0.08948123  0.49473571  0.18262028
   0.33915202  0.99494983  0.18221409
   0.58932018  0.49249255  0.18184127
   0.83886815  0.99565231  0.18264264
   0.00482161  0.23028804  0.19146133
   0.25335627  0.72986109  0.19135331
   0.50418001  0.22889085  0.19096192
   0.75754543  0.73015047  0.19091740
   0.23980630  0.24183318  0.20069927
   0.48814268  0.74292346  0.19970810
   0.74134177  0.24551959  0.20397721
   0.98888028  0.74026201  0.20220267
   0.12324631  0.64096307  0.31424638
   0.37173017  0.14001307  0.31293665
   0.62337167  0.64765550  0.30449243
   0.87450631  0.13938896  0.31398669
   0.10992857  0.16070343  0.31242261
   0.35855650  0.65982577  0.31265169
   0.60636680  0.15901396  0.31370446
   0.85866361  0.66123362  0.31849668
   0.02682591  0.88874123  0.32441592
   0.27566885  0.38841555  0.32532723
   0.52450228  0.88753192  0.32463295
   0.78191778  0.38320176  0.33403858
   0.01133245  0.40675006  0.33572641
   0.25900024  0.90685849  0.33608000
   0.50776755  0.40203048  0.33427831
   0.75944398  0.90812031  0.33617685
   0.69566360  0.54806101  0.42207360
   0.02440000  0.17254999  0.00000000
   0.27439999  0.67255002  0.00000000
   0.52439999  0.17254999  0.00000000
   0.77439999  0.67255002  0.00000000
   0.21455000  0.43156997  0.01581000
   0.46455001  0.93156996  0.01581000
   0.71455008  0.43156997  0.01581000
   0.96455004  0.93156996  0.01581000
   0.20673000  0.89092997  0.02490000
   0.45673000  0.39092998  0.02490000
   0.70672997  0.89092997  0.02490000
   0.95673004  0.39092998  0.02490000
   0.19748000  0.22610000  0.04418000
   0.44748002  0.72610003  0.04418000
   0.69748003  0.22610000  0.04418000
   0.94747999  0.72610003  0.04418000
   0.11054000  0.67523994  0.06158000
   0.36054002  0.17523999  0.06158000
   0.61053998  0.67523994  0.06158000
   0.86053999  0.17523999  0.06158000
   0.10129000  0.01041000  0.08086000
   0.35129000  0.51041000  0.08086000
   0.60128998  0.01041000  0.08086000
   0.85128994  0.51041000  0.08086000
   0.09348000  0.46976000  0.08995000
   0.34348000  0.96975995  0.08995000
   0.59348001  0.46976000  0.08995000
   0.84347996  0.96975995  0.08995000
   0.03362000  0.22878000  0.10576000
   0.28361999  0.72877998  0.10576000
   0.53361997  0.22878000  0.10576000
   0.78362002  0.72877998  0.10576000
   0.04546062  0.83283005  0.13367105
   0.29636302  0.33378112  0.13344988
   0.54641281  0.83417775  0.13336598
   0.79618480  0.33270081  0.13406525
   0.23149834  0.09334299  0.14620744
   0.48152494  0.59342549  0.14659461
   0.73180585  0.09383459  0.14693848
   0.98183291  0.59331973  0.14694543
   0.22570564  0.55225553  0.16051301
   0.47632811  0.05105941  0.16067107
   0.72533931  0.55193961  0.16062930
   0.97534608  0.05233456  0.16076522
   0.21503999  0.89019735  0.18107417
   0.46472785  0.38919511  0.18037034
   0.71510866  0.88951478  0.18115893
   0.96548777  0.39045110  0.18235382
   0.13010820  0.33487087  0.19236757
   0.37905486  0.83506068  0.19314078
   0.62850219  0.33450958  0.19376873
   0.87996643  0.83658133  0.19376092
   0.11784195  0.67122921  0.21473833
   0.36744264  0.16953945  0.21295968
   0.61842000  0.67094444  0.21316075
   0.86816150  0.17037997  0.21616145
   0.11564416  0.13020775  0.22385128
   0.36412599  0.63098929  0.22396033
   0.61524005  0.13124019  0.22534055
   0.86418277  0.63206021  0.22492264
   0.04723880  0.89329592  0.23988873
   0.29770052  0.39539026  0.24054262
   0.54742670  0.89362911  0.24000940
   0.79606792  0.39393658  0.24120564
   0.07042504  0.49215211  0.26890107
   0.31521087  0.99217013  0.26836593
   0.56153815  0.49353411  0.26794574
   0.81107265  0.99402719  0.26846318
   0.25160994  0.75034745  0.28268728
   0.49769876  0.25016801  0.28139768
   0.75052590  0.74886748  0.28296038
   0.00541276  0.25080996  0.28152787
   0.24597848  0.21383609  0.29089794
   0.49437144  0.71296759  0.28997536
   0.74412088  0.21527481  0.29630385
   0.99467640  0.71152511  0.29314695
   0.23942533  0.55429340  0.32916214
   0.48625739  0.05238628  0.32656047
   0.73205230  0.55172717  0.32784907
   0.98968900  0.05520684  0.32834105
   0.14721738  0.00340331  0.33077141
   0.39821664  0.50494161  0.33437548
   0.64333266  0.00081046  0.33432301
   0.89750126  0.50037083  0.32742707
   0.13812105  0.32039578  0.35162647
   0.38622206  0.81914192  0.35152793
   0.61990785  0.31359242  0.35328861
   0.88994015  0.83333347  0.34638677
   0.13209381  0.79948013  0.35632089
   0.38098775  0.29929280  0.35522327
   0.62897569  0.79440642  0.35492658
   0.89106135  0.29389002  0.35565676
   0.06640492  0.54333833  0.37490873
   0.31624778  0.04282604  0.37452321
   0.57683201  0.54748189  0.37468338
   0.81631829  0.04206827  0.37504864
   0.81117198  0.66629713  0.40694381
   0.76098210  0.41925420  0.41731739
   0.84124110  0.72410605  0.42953032
   0.41616225  0.55036428  0.54750633
   0.54733326  0.61694555  0.59015911
   0.50809515  0.33562133  0.53643405
   0.60442957  0.50295570  0.57125441
   0.39154933  0.34581725  0.53718218
   0.45517918  0.37654184  0.59840947
   0.56135789  0.67017173  0.48183743
   0.47161597  0.50582636  0.48797775
   0.60720021  0.48822406  0.47275614
   0.73842292  0.65700971  0.54335999
   0.78243547  0.82022541  0.47726676
   0.70272099  0.86063326  0.52427158
   0.66886859  0.81951167  0.45590668
   0.45554567  0.38388055  0.55267774
   0.56015668  0.56210640  0.55487699
   0.47147335  0.50359112  0.53392619
   0.60727057  0.63367401  0.51082167
   0.69214469  0.68546513  0.51234208
   0.71300386  0.80134794  0.49062553
 
 position of ions in cartesian coordinates  (Angst):
   0.99045921  3.89727473  0.91670460
   4.22806168  9.97101307  0.91670460
   8.54575920  3.89727473  0.91670460
  11.78336239  9.97101307  0.91670460
   0.16045142 10.12552833  1.16817511
   4.47814847  4.05179071  1.16817511
   7.71575212 10.12552833  1.16817511
  12.03344917  4.05179071  1.16817511
   3.52054525  0.82335597  1.36714601
   6.75814868  6.89709425  1.36714601
  11.07584571  0.82335597  1.36714601
  14.31344795  6.89709425  1.36714601
   2.69052649  7.05173159  1.61861647
   7.00822400  0.97799331  1.61861647
  10.24582672  7.05173159  1.61861647
  14.56352424  0.97799331  1.61861647
   0.54005256 11.93808558  4.09837553
   4.86463616  5.87443563  4.10155265
   8.12103274 11.96005483  4.10628026
  12.40598638  5.86158736  4.15411458
   0.81775375  6.00979033  4.37784661
   4.05015068 12.08612956  4.36810906
   8.37304326  5.98254167  4.35917169
  11.60040269 12.09466287  4.37838265
  -0.17587544  2.79741847  4.58978771
   3.04004630  8.86597030  4.58719832
   7.37123896  2.78044618  4.57781577
  10.65833481  8.86948555  4.57674840
   3.36241443  2.93766282  4.81124335
   6.57370133  9.02464514  4.78748256
  10.93693497  2.98244347  4.88982340
  14.14302183  8.99231527  4.84728346
   1.17002494  7.78608377  7.53324007
   5.46583868  1.70080550  7.50184276
   8.71999108  7.86737985  7.29941454
  13.06376226  1.69322404  7.52701468
   1.48751178  1.95214117  7.48951991
   4.70532970  8.01521802  7.49501150
   8.99081627  1.93161838  7.52024889
  12.26072786  8.03231983  7.63512993
  -0.55456909 10.79596316  7.77702850
   3.74599635  4.71826873  7.79887463
   6.96692598 10.78127309  7.78223119
  11.40135305  4.65493428  8.00770674
  -0.26808844  4.94098677  8.04816799
   2.93415609 11.01604212  8.05664452
   7.23844167  4.88365580  8.01345357
  10.49479877 11.03136997  8.05896608
   9.91993689  6.65755821 10.11811753
   0.18232835  2.09604693  0.00000000
   3.41993094  8.16978550  0.00000000
   7.73762846  2.09604693  0.00000000
  10.97523117  8.16978550  0.00000000
   2.77584291  5.24248600  0.37900365
   6.01344586 11.31622410  0.37900365
  10.33114434  5.24248600  0.37900365
  13.56874656 11.31622410  0.37900365
   2.16152573 10.82255077  0.59691280
   6.47922326  4.74881268  0.59691280
   9.71682548 10.82255077  0.59691280
  14.03452396  4.74881268  0.59691280
   2.73983193  2.74654436  1.05910064
   5.97743511  8.82028293  1.05910064
  10.29513263  2.74654436  1.05910064
  13.53273487  8.82028293  1.05910064
   0.94100273  8.20246124  1.47622036
   5.25870037  2.12872362  1.47622036
   8.49630260  8.20246124  1.47622036
  12.81400013  2.12872362  1.47622036
   1.51930892  0.12645522  1.93840825
   4.75691175  6.20019341  1.93840825
   9.07460880  0.12645522  1.93840825
  12.31221104  6.20019341  1.93840825
   0.90515363  5.70639848  2.15631746
   4.14275646 11.78013610  2.15631746
   8.46045399  5.70639848  2.15631746
  11.69805622 11.78013610  2.15631746
   0.26091433  2.77909971  2.53532100
   3.49851704  8.85283756  2.53532100
   7.81621408  2.77909971  2.53532100
  11.05381775  8.85283756  2.53532100
  -0.21259804 10.11678337  3.20441588
   4.11770798  4.05459829  3.19911405
   7.35563477 10.13315450  3.19710264
  11.67148213  4.04147528  3.21386594
   3.39725973  1.13388172  3.50494334
   6.63517532  7.20862217  3.51422479
  10.95667557  1.13985344  3.52246805
  14.19524341  7.20733747  3.52263478
   2.81405958  6.70851106  3.84788218
   7.14245482  0.62024303  3.85167131
  10.36416552  6.70467336  3.85066996
  14.68153860  0.63573281  3.85392823
   2.28788593 10.81365135  4.34078249
   6.60194933  4.72773835  4.32390995
   9.84496112 10.80535976  4.34281453
  14.16737579  4.74299557  4.37145890
   1.60432083  4.06783605  4.61151238
   4.82580201 10.14387994  4.63004806
   9.13574350  4.06344720  4.64510166
  12.39323411 10.16235192  4.64491434
   1.05567152  8.15374102  5.14779319
   5.36916023  2.05947649  5.10515486
   8.62001400  8.15028171  5.10997501
  12.93441511  2.06968662  5.18190881
   1.60681599  1.58169562  5.36625247
   4.82063422  7.66492750  5.36886684
   9.15489478  1.59423707  5.40195405
  12.37563570  7.67793642  5.39193574
  -0.25103751 10.85129115  5.75070872
   4.07137473  4.80299380  5.76638411
   7.30674210 10.85533846  5.75360147
  11.60357543  4.78533535  5.78227828
   0.53259372  5.97840615  6.44620420
   3.69138786 12.05236317  6.43337571
   7.95211513  5.99519390  6.42330262
  11.18215129 12.07492188  6.43570695
   2.99153105  9.11482792  6.77669282
   7.25032206  3.03891000  6.74577783
  10.53204934  9.09685006  6.78323969
  -0.18910846  3.04670808  6.74889898
   3.48591936  2.59756891  6.97352189
   6.70017679  8.66075698  6.95140559
  11.01159611  2.61504572  7.10311464
  14.26164323  8.64323446  7.02743616
   3.01917123  6.73326601  7.89080667
   7.29105897  0.63636104  7.82843838
  10.46583223  6.70209279  7.85932921
  14.89516640  0.67062381  7.87112328
   2.22086711  0.04134163  7.92938488
   5.47190778  6.13376632  8.01578294
   9.72026737  0.00984505  8.01452521
  13.02133506  6.07824283  7.84921289
   1.74103426  3.89200012  8.42933058
   4.95129641  9.95050719  8.42696839
   9.02847029  3.80935653  8.46917611
  12.54745102 10.12289870  8.30372250
   1.13250259  9.71166602  8.54186705
   5.43368906  3.63565218  8.51555457
   8.64616628  9.65003324  8.50844225
  13.14704309  3.57002214  8.52594626
   0.41656140  6.60018955  8.98746239
   4.73243764  0.52022830  8.97822042
   8.12494576  6.65052338  8.98206017
  12.28962177  0.51102334  8.99081627
  11.53763178  8.09382861  9.75542000
  11.04606221  5.09288048 10.00409978
  11.92955512  8.79606109 10.29687289
   5.69401595  6.68553707 13.12504107
   7.60417468  7.49433144 14.14753075
   7.31511996  4.07695214 12.85961202
   8.59005394  6.10964247 13.69433949
   5.54303014  4.20080689 12.87754652
   6.47132992  4.57403311 14.34531160
   7.75860589  8.14089525 11.55080001
   6.58006010  6.14451374 11.69799816
   8.64783167  5.93069021 11.33309949
  10.44838107  7.98100992 13.02564331
  10.93714872  9.96366884 11.44123008
   9.68897069 10.45452222 12.56804827
   9.22185590  9.95499868 10.92917768
   6.46894134  4.66317996 13.24901215
   7.85717569  6.82817419 13.30173350
   6.58031942  6.11736119 12.79949257
   8.49179500  7.69754004 12.24562184
   9.71835474  8.32667143 12.28206959
   9.90838484  9.73435518 11.76147171
 


--------------------------------------------------------------------------------------------------------


 k-point  1 :   0.2500 0.2500 0.0000  plane waves:  111683
 k-point  2 :  -0.2500 0.2500 0.0000  plane waves:  111725

 maximum and minimum number of plane-waves per node :      7001     6957

 maximum number of plane-waves:    111725
 maximum index in each direction: 
   IXMAX=   27   IYMAX=   21   IZMAX=   43
   IXMIN=  -27   IYMIN=  -22   IZMIN=  -43


 real space projection operators:
  total allocation   :      22456.57 KBytes
  max/ min on nodes  :       1643.52       1287.55


 parallel 3D FFT for wavefunctions:
    minimum data exchange during FFTs selected (reduces bandwidth)
 parallel 3D FFT for charge:
    minimum data exchange during FFTs selected (reduces bandwidth)


 total amount of memory used by VASP MPI-rank0    92404. kBytes
=======================================================================

   base      :      30000. kBytes
   nonlr-proj:       9141. kBytes
   fftplans  :       4220. kBytes
   grid      :      12288. kBytes
   one-center:        342. kBytes
   wavefun   :      36413. kBytes
 
     INWAV:  cpu time   38.0929: real time   38.0724
 Broyden mixing: mesh for mixing (old mesh)
   NGX = 55   NGY = 45   NGZ = 87
  (NGX  =168   NGY  =140   NGZ  =280)
  gives a total of 215325 points

 initial charge density was supplied:
 number of electron    1214.0000131 magnetization       0.0000000
 keeping initial charge density in first step


--------------------------------------------------------------------------------------------------------


 Maximum index for non-local projection operator          420
 Maximum index for augmentation-charges          478 (set IRDMAX)


--------------------------------------------------------------------------------------------------------


 First call to EWALD:  gamma=   0.108
 Maximum number of real-space cells 3x 4x 2
 Maximum number of reciprocal cells 3x 2x 4

    FEWALD:  cpu time    0.0550: real time    0.0549


--------------------------------------- Iteration      1(   1)  ---------------------------------------


    POTLOK:  cpu time    0.4659: real time    0.5062
    SETDIJ:  cpu time    0.0792: real time    0.0793
     EDDAV:  cpu time   26.2536: real time   26.2208
       DOS:  cpu time    0.0024: real time    0.0024
    CHARGE:  cpu time    1.0675: real time    1.0671
    MIXING:  cpu time    0.0185: real time    0.0202
    --------------------------------------------
      LOOP:  cpu time   27.8875: real time   27.8964

 eigenvalue-minimisations  :  6336
 total energy-change (2. order) :-0.1377236E+04  (-0.1361860E+00)
 number of electron    1214.0000131 magnetization       0.0000000
 augmentation part       74.0613064 magnetization       0.0000003

 Broyden mixing:
  rms(total) = 0.95326E-01    rms(broyden)= 0.95246E-01
  rms(prec ) = 0.96600E-01
  weight for this iteration     100.00

 Free energy of the ion-electron system (eV)
  ---------------------------------------------------
  alpha Z        PSCENC =      2166.38705829
  Ewald energy   TEWEN  =    382793.63327894
  -Hartree energ DENC   =   -479966.87545726
  -exchange      EXHF   =         0.00000000
  -V(xc)+E(xc)   XCENC  =      5337.08423874
  PAW double counting   =    130197.34068592  -129520.03979145
  entropy T*S    EENTRO =        -0.00000000
  eigenvalues    EBANDS =    -18740.03198398
  atomic energy  EATOM  =    106355.26625530
  Solvation  Ediel_sol  =         0.00000000
  ---------------------------------------------------
  free energy    TOTEN  =     -1377.23571550 eV

  energy without entropy =    -1377.23571550  energy(sigma->0) =    -1377.23571550


--------------------------------------------------------------------------------------------------------




--------------------------------------- Iteration      1(   2)  ---------------------------------------


    POTLOK:  cpu time    0.4259: real time    0.4526
    SETDIJ:  cpu time    0.0769: real time    0.0769
     EDDAV:  cpu time   25.7878: real time   25.7419
       DOS:  cpu time    0.0022: real time    0.0022
    CHARGE:  cpu time    1.0631: real time    1.0619
    MIXING:  cpu time    0.0106: real time    0.0120
    --------------------------------------------
      LOOP:  cpu time   27.3666: real time   27.3476

 eigenvalue-minimisations  :  6176
 total energy-change (2. order) :-0.1760834E+01  (-0.1212452E+00)
 number of electron    1214.0000130 magnetization       0.0000000
 augmentation part       73.9861166 magnetization      -0.0000003

 Broyden mixing:
  rms(total) = 0.41463E-01    rms(broyden)= 0.41345E-01
  rms(prec ) = 0.43628E-01
  weight for this iteration     100.00

 eigenvalues of (default mixing * dielectric matrix)
  average eigenvalue GAMMA=   0.7348
  0.7348

 Free energy of the ion-electron system (eV)
  ---------------------------------------------------
  alpha Z        PSCENC =      2166.38705829
  Ewald energy   TEWEN  =    382793.63327894
  -Hartree energ DENC   =   -479967.76340215
  -exchange      EXHF   =         0.00000000
  -V(xc)+E(xc)   XCENC  =      5337.17577655
  PAW double counting   =    130053.71526775  -129375.36816858
  entropy T*S    EENTRO =        -0.00000000
  eigenvalues    EBANDS =    -18742.04261579
  atomic energy  EATOM  =    106355.26625530
  Solvation  Ediel_sol  =         0.00000000
  ---------------------------------------------------
  free energy    TOTEN  =     -1378.99654968 eV

  energy without entropy =    -1378.99654968  energy(sigma->0) =    -1378.99654968


--------------------------------------------------------------------------------------------------------




--------------------------------------- Iteration      1(   3)  ---------------------------------------


    POTLOK:  cpu time    0.4554: real time    0.4550
    SETDIJ:  cpu time    0.0770: real time    0.0769
     EDDAV:  cpu time   27.4858: real time   27.4406
       DOS:  cpu time    0.0022: real time    0.0022
    CHARGE:  cpu time    1.0611: real time    1.0599
    MIXING:  cpu time    0.0081: real time    0.0081
    --------------------------------------------
      LOOP:  cpu time   29.0894: real time   29.0425

 eigenvalue-minimisations  :  6720
 total energy-change (2. order) :-0.9975208E-02  (-0.4388722E-02)
 number of electron    1214.0000131 magnetization       0.0000000
 augmentation part       74.0186847 magnetization      -0.0000003

 Broyden mixing:
  rms(total) = 0.27809E-01    rms(broyden)= 0.27792E-01
  rms(prec ) = 0.28242E-01
  weight for this iteration     100.00

 eigenvalues of (default mixing * dielectric matrix)
  average eigenvalue GAMMA=   0.6926
  0.6926  0.6926

 Free energy of the ion-electron system (eV)
  ---------------------------------------------------
  alpha Z        PSCENC =      2166.38705829
  Ewald energy   TEWEN  =    382793.63327894
  -Hartree energ DENC   =   -479965.33802420
  -exchange      EXHF   =         0.00000000
  -V(xc)+E(xc)   XCENC  =      5336.98110242
  PAW double counting   =    130080.33029251  -129401.22113621
  entropy T*S    EENTRO =        -0.00000000
  eigenvalues    EBANDS =    -18745.04535194
  atomic energy  EATOM  =    106355.26625530
  Solvation  Ediel_sol  =         0.00000000
  ---------------------------------------------------
  free energy    TOTEN  =     -1379.00652489 eV

  energy without entropy =    -1379.00652489  energy(sigma->0) =    -1379.00652489


--------------------------------------------------------------------------------------------------------




--------------------------------------- Iteration      1(   4)  ---------------------------------------


    POTLOK:  cpu time    0.4363: real time    0.4479
    SETDIJ:  cpu time    0.0767: real time    0.0766
     EDDAV:  cpu time   23.8342: real time   23.7922
       DOS:  cpu time    0.0023: real time    0.0023
    CHARGE:  cpu time    1.0658: real time    1.0645
    MIXING:  cpu time    0.0089: real time    0.0094
    --------------------------------------------
      LOOP:  cpu time   25.4242: real time   25.3929

 eigenvalue-minimisations  :  5568
 total energy-change (2. order) :-0.4148047E-04  (-0.2185830E-03)
 number of electron    1214.0000131 magnetization       0.0000000
 augmentation part       74.0146382 magnetization      -0.0000002

 Broyden mixing:
  rms(total) = 0.22463E-01    rms(broyden)= 0.22462E-01
  rms(prec ) = 0.22781E-01
  weight for this iteration     100.00

 eigenvalues of (default mixing * dielectric matrix)
  average eigenvalue GAMMA=   0.6858
  0.7719  0.7719  0.5138

 Free energy of the ion-electron system (eV)
  ---------------------------------------------------
  alpha Z        PSCENC =      2166.38705829
  Ewald energy   TEWEN  =    382793.63327894
  -Hartree energ DENC   =   -479966.14265472
  -exchange      EXHF   =         0.00000000
  -V(xc)+E(xc)   XCENC  =      5337.05118362
  PAW double counting   =    130109.77917593  -129430.61876550
  entropy T*S    EENTRO =        -0.00000000
  eigenvalues    EBANDS =    -18744.36209824
  atomic energy  EATOM  =    106355.26625530
  Solvation  Ediel_sol  =         0.00000000
  ---------------------------------------------------
  free energy    TOTEN  =     -1379.00656637 eV

  energy without entropy =    -1379.00656637  energy(sigma->0) =    -1379.00656637


--------------------------------------------------------------------------------------------------------




--------------------------------------- Iteration      1(   5)  ---------------------------------------


    POTLOK:  cpu time    0.4395: real time    0.4504
    SETDIJ:  cpu time    0.0770: real time    0.0769
     EDDAV:  cpu time   27.6277: real time   27.5791
       DOS:  cpu time    0.0021: real time    0.0021
    CHARGE:  cpu time    1.0986: real time    1.0974
    MIXING:  cpu time    0.0095: real time    0.0095
    --------------------------------------------
      LOOP:  cpu time   29.2545: real time   29.2155

 eigenvalue-minimisations  :  6784
 total energy-change (2. order) :-0.2151472E-05  (-0.2056841E-04)
 number of electron    1214.0000131 magnetization       0.0000000
 augmentation part       74.0203679 magnetization      -0.0000000

 Broyden mixing:
  rms(total) = 0.18891E-01    rms(broyden)= 0.18891E-01
  rms(prec ) = 0.19159E-01
  weight for this iteration     100.00

 eigenvalues of (default mixing * dielectric matrix)
  average eigenvalue GAMMA=   0.7315
  0.9136  0.9136  0.5493  0.5493

 Free energy of the ion-electron system (eV)
  ---------------------------------------------------
  alpha Z        PSCENC =      2166.38705829
  Ewald energy   TEWEN  =    382793.63327894
  -Hartree energ DENC   =   -479966.24066995
  -exchange      EXHF   =         0.00000000
  -V(xc)+E(xc)   XCENC  =      5337.05541206
  PAW double counting   =    130127.68117401  -129448.48327043
  entropy T*S    EENTRO =        -0.00000000
  eigenvalues    EBANDS =    -18744.30580674
  atomic energy  EATOM  =    106355.26625530
  Solvation  Ediel_sol  =         0.00000000
  ---------------------------------------------------
  free energy    TOTEN  =     -1379.00656852 eV

  energy without entropy =    -1379.00656852  energy(sigma->0) =    -1379.00656852


--------------------------------------------------------------------------------------------------------




--------------------------------------- Iteration      1(   6)  ---------------------------------------


    POTLOK:  cpu time    0.4384: real time    0.4483
    SETDIJ:  cpu time    0.0768: real time    0.0766
     EDDAV:  cpu time   27.1727: real time   27.1225
       DOS:  cpu time    0.0022: real time    0.0022
    CHARGE:  cpu time    1.0983: real time    1.0970
    MIXING:  cpu time    0.0096: real time    0.0096
    --------------------------------------------
      LOOP:  cpu time   28.7981: real time   28.7563

 eigenvalue-minimisations  :  6592
 total energy-change (2. order) :-0.9115814E-05  (-0.2556777E-05)
 number of electron    1214.0000131 magnetization       0.0000000
 augmentation part       74.0216913 magnetization      -0.0000000

 Broyden mixing:
  rms(total) = 0.16217E-01    rms(broyden)= 0.16217E-01
  rms(prec ) = 0.16457E-01
  weight for this iteration     100.00

 eigenvalues of (default mixing * dielectric matrix)
  average eigenvalue GAMMA=   0.7935
  1.1234  1.1234  0.5197  0.6004  0.6004

 Free energy of the ion-electron system (eV)
  ---------------------------------------------------
  alpha Z        PSCENC =      2166.38705829
  Ewald energy   TEWEN  =    382793.63327894
  -Hartree energ DENC   =   -479966.38992599
  -exchange      EXHF   =         0.00000000
  -V(xc)+E(xc)   XCENC  =      5337.06377710
  PAW double counting   =    130142.64631117  -129463.43516426
  entropy T*S    EENTRO =        -0.00000000
  eigenvalues    EBANDS =    -18744.17816818
  atomic energy  EATOM  =    106355.26625530
  Solvation  Ediel_sol  =         0.00000000
  ---------------------------------------------------
  free energy    TOTEN  =     -1379.00657764 eV

  energy without entropy =    -1379.00657764  energy(sigma->0) =    -1379.00657764


--------------------------------------------------------------------------------------------------------




--------------------------------------- Iteration      1(   7)  ---------------------------------------


    POTLOK:  cpu time    0.4426: real time    5.9113
    SETDIJ:  cpu time    0.0768: real time    0.0768
     EDDAV:  cpu time   27.5565: real time   27.5054
       DOS:  cpu time    0.0021: real time    0.0021
    CHARGE:  cpu time    1.0932: real time    1.0919
    MIXING:  cpu time    0.0102: real time    0.0102
    --------------------------------------------
      LOOP:  cpu time   29.1815: real time   34.5979

 eigenvalue-minimisations  :  6688
 total energy-change (2. order) :-0.3559660E-05  (-0.2346857E-05)
 number of electron    1214.0000131 magnetization       0.0000000
 augmentation part       74.0231686 magnetization       0.0000000

 Broyden mixing:
  rms(total) = 0.13096E-01    rms(broyden)= 0.13096E-01
  rms(prec ) = 0.13288E-01
  weight for this iteration     100.00

 eigenvalues of (default mixing * dielectric matrix)
  average eigenvalue GAMMA=   0.8683
  1.3555  1.3555  0.6956  0.6956  0.5538  0.5538

 Free energy of the ion-electron system (eV)
  ---------------------------------------------------
  alpha Z        PSCENC =      2166.38705829
  Ewald energy   TEWEN  =    382793.63327894
  -Hartree energ DENC   =   -479966.46344054
  -exchange      EXHF   =         0.00000000
  -V(xc)+E(xc)   XCENC  =      5337.06906566
  PAW double counting   =    130159.17734577  -129479.95295475
  entropy T*S    EENTRO =        -0.00000000
  eigenvalues    EBANDS =    -18744.12318987
  atomic energy  EATOM  =    106355.26625530
  Solvation  Ediel_sol  =         0.00000000
  ---------------------------------------------------
  free energy    TOTEN  =     -1379.00658120 eV

  energy without entropy =    -1379.00658120  energy(sigma->0) =    -1379.00658120


--------------------------------------------------------------------------------------------------------




--------------------------------------- Iteration      1(   8)  ---------------------------------------


    POTLOK:  cpu time    0.4220: real time    0.4513
    SETDIJ:  cpu time    0.0773: real time    0.0771
     EDDAV:  cpu time   26.0462: real time   25.9979
       DOS:  cpu time    0.0020: real time    0.0020
    CHARGE:  cpu time    1.0912: real time    1.0902
    MIXING:  cpu time    0.0105: real time    0.0105
    --------------------------------------------
      LOOP:  cpu time   27.6491: real time   27.6291

 eigenvalue-minimisations  :  6144
 total energy-change (2. order) :-0.3451598E-05  (-0.1905235E-05)
 number of electron    1214.0000131 magnetization       0.0000000
 augmentation part       74.0245686 magnetization       0.0000000

 Broyden mixing:
  rms(total) = 0.10667E-01    rms(broyden)= 0.10667E-01
  rms(prec ) = 0.10815E-01
  weight for this iteration     100.00

 eigenvalues of (default mixing * dielectric matrix)
  average eigenvalue GAMMA=   0.9166
  1.5826  1.5826  0.7717  0.7717  0.5349  0.5862  0.5862

 Free energy of the ion-electron system (eV)
  ---------------------------------------------------
  alpha Z        PSCENC =      2166.38705829
  Ewald energy   TEWEN  =    382793.63327894
  -Hartree energ DENC   =   -479966.51895555
  -exchange      EXHF   =         0.00000000
  -V(xc)+E(xc)   XCENC  =      5337.07234433
  PAW double counting   =    130172.23936530  -129493.00537421
  entropy T*S    EENTRO =        -0.00000000
  eigenvalues    EBANDS =    -18744.08055704
  atomic energy  EATOM  =    106355.26625530
  Solvation  Ediel_sol  =         0.00000000
  ---------------------------------------------------
  free energy    TOTEN  =     -1379.00658465 eV

  energy without entropy =    -1379.00658465  energy(sigma->0) =    -1379.00658465


--------------------------------------------------------------------------------------------------------




--------------------------------------- Iteration      1(   9)  ---------------------------------------


    POTLOK:  cpu time    0.4526: real time    0.4526
    SETDIJ:  cpu time    0.0766: real time    0.0765
     EDDAV:  cpu time   20.8348: real time   20.8003
       DOS:  cpu time    0.0022: real time    0.0022
    CHARGE:  cpu time    1.0956: real time    1.0946
    MIXING:  cpu time    0.0111: real time    0.0111
    --------------------------------------------
      LOOP:  cpu time   22.4728: real time   22.4372

 eigenvalue-minimisations  :  4544
 total energy-change (2. order) :-0.3899084E-05  (-0.5555313E-06)
 number of electron    1214.0000131 magnetization       0.0000000
 augmentation part       74.0255631 magnetization      -0.0000000

 Broyden mixing:
  rms(total) = 0.90682E-02    rms(broyden)= 0.90682E-02
  rms(prec ) = 0.91958E-02
  weight for this iteration     100.00

 eigenvalues of (default mixing * dielectric matrix)
  average eigenvalue GAMMA=   1.0155
  1.9386  1.9386  0.8983  0.8983  0.6532  0.6532  0.5718  0.5718

 Free energy of the ion-electron system (eV)
  ---------------------------------------------------
  alpha Z        PSCENC =      2166.38705829
  Ewald energy   TEWEN  =    382793.63327894
  -Hartree energ DENC   =   -479966.55429935
  -exchange      EXHF   =         0.00000000
  -V(xc)+E(xc)   XCENC  =      5337.07395243
  PAW double counting   =    130180.82511285  -129501.58829102
  entropy T*S    EENTRO =        -0.00000000
  eigenvalues    EBANDS =    -18744.04965597
  atomic energy  EATOM  =    106355.26625530
  Solvation  Ediel_sol  =         0.00000000
  ---------------------------------------------------
  free energy    TOTEN  =     -1379.00658855 eV

  energy without entropy =    -1379.00658855  energy(sigma->0) =    -1379.00658855


--------------------------------------------------------------------------------------------------------




--------------------------------------- Iteration      1(  10)  ---------------------------------------


    POTLOK:  cpu time    0.4378: real time    0.4517
    SETDIJ:  cpu time    0.0771: real time    0.0770
     EDDAV:  cpu time   24.6900: real time   24.6476
       DOS:  cpu time    0.0023: real time    0.0023
    CHARGE:  cpu time    1.0906: real time    1.0894
    MIXING:  cpu time    0.0113: real time    0.0113
    --------------------------------------------
      LOOP:  cpu time   26.3090: real time   26.2792

 eigenvalue-minimisations  :  5792
 total energy-change (2. order) :-0.3674329E-05  (-0.1261197E-05)
 number of electron    1214.0000131 magnetization       0.0000000
 augmentation part       74.0265327 magnetization      -0.0000000

 Broyden mixing:
  rms(total) = 0.63525E-02    rms(broyden)= 0.63524E-02
  rms(prec ) = 0.64466E-02
  weight for this iteration     100.00

 eigenvalues of (default mixing * dielectric matrix)
  average eigenvalue GAMMA=   1.1283
[...]
   -8.9255374509E-03    8.8333443422E-03    1.7694377070E-03
   -2.2049027703E-03    2.1711388154E-03    1.7380648620E-03
   -2.1994899053E-03    3.0862970037E-03   -5.0076485776E-03
    1.2169045349E-03   -2.6687228558E-03   -1.6895142922E-03
    1.1219005231E-02    2.1419262567E-02   -5.5932046225E-03
    2.6729375657E-03    4.7131138719E-03   -4.0571674762E-03
    4.3616349058E-03   -1.0676479407E-03   -2.6025636634E-03
    1.1477853425E-03    3.6431000536E-04   -1.9949715515E-03
   -2.6678045071E-02    1.2362641179E-02    3.7957002540E-02
   -1.7616794597E-02    3.0021789749E-03    4.8416869573E-04
    1.6840111362E-03    1.2166367763E-03   -1.1607396371E-03
    9.3166402782E-03    6.4244346487E-03    9.3575054131E-03
   -1.1371366132E-03    2.1401547162E-03    1.5692972553E-03
    8.8839147842E-02    1.5136188624E-01    1.8518667521E-02
    0.0000000000E+00    0.0000000000E+00    0.0000000000E+00
    0.0000000000E+00    0.0000000000E+00    0.0000000000E+00
    0.0000000000E+00    0.0000000000E+00    0.0000000000E+00
    0.0000000000E+00    0.0000000000E+00    0.0000000000E+00
    0.0000000000E+00    0.0000000000E+00    0.0000000000E+00
    0.0000000000E+00    0.0000000000E+00    0.0000000000E+00
    0.0000000000E+00    0.0000000000E+00    0.0000000000E+00
    0.0000000000E+00    0.0000000000E+00    0.0000000000E+00
    0.0000000000E+00    0.0000000000E+00    0.0000000000E+00
    0.0000000000E+00    0.0000000000E+00    0.0000000000E+00
    0.0000000000E+00    0.0000000000E+00    0.0000000000E+00
    0.0000000000E+00    0.0000000000E+00    0.0000000000E+00
    0.0000000000E+00    0.0000000000E+00    0.0000000000E+00
    0.0000000000E+00    0.0000000000E+00    0.0000000000E+00
    0.0000000000E+00    0.0000000000E+00    0.0000000000E+00
    0.0000000000E+00    0.0000000000E+00    0.0000000000E+00
    0.0000000000E+00    0.0000000000E+00    0.0000000000E+00
    0.0000000000E+00    0.0000000000E+00    0.0000000000E+00
    0.0000000000E+00    0.0000000000E+00    0.0000000000E+00
    0.0000000000E+00    0.0000000000E+00    0.0000000000E+00
    0.0000000000E+00    0.0000000000E+00    0.0000000000E+00
    0.0000000000E+00    0.0000000000E+00    0.0000000000E+00
    0.0000000000E+00    0.0000000000E+00    0.0000000000E+00
    0.0000000000E+00    0.0000000000E+00    0.0000000000E+00
    0.0000000000E+00    0.0000000000E+00    0.0000000000E+00
    0.0000000000E+00    0.0000000000E+00    0.0000000000E+00
    0.0000000000E+00    0.0000000000E+00    0.0000000000E+00
    0.0000000000E+00    0.0000000000E+00    0.0000000000E+00
    0.0000000000E+00    0.0000000000E+00    0.0000000000E+00
    0.0000000000E+00    0.0000000000E+00    0.0000000000E+00
    0.0000000000E+00    0.0000000000E+00    0.0000000000E+00
    0.0000000000E+00    0.0000000000E+00    0.0000000000E+00
   -1.6173947825E-03    3.0215616941E-03   -3.8124594901E-03
   -1.8822138039E-03   -5.2229054638E-04   -9.4968697614E-04
   -2.7509941048E-04    3.0121698507E-03   -2.9435387816E-03
    3.0996752931E-03    1.1784513745E-03    6.7280547277E-03
    6.0695144160E-04    1.9575464749E-03   -5.0695425528E-04
   -1.8394100618E-03   -1.7294084434E-03   -3.4514643615E-03
    6.1754253244E-04    2.9071234576E-03   -1.3695800881E-03
    2.1175845062E-03   -3.0696886058E-03   -2.1665216984E-03
   -5.0257631446E-04   -2.2543872383E-03   -1.5117364914E-03
   -6.8086286141E-04    2.0439133999E-03   -1.3529137842E-03
   -6.5586322570E-04   -1.2956803971E-03   -6.9088335221E-04
    8.1286523528E-04    2.7916320307E-03   -5.1515860513E-05
    1.2198429680E-04    7.7978663768E-04   -2.9738760359E-03
    1.1826246334E-03    3.4913116806E-03    2.3007314802E-03
   -1.3656698664E-02    3.2606175566E-02   -6.7960616275E-03
   -2.7904806064E-03   -6.8883153103E-04    1.2155478613E-02
   -3.0582132708E-03   -1.7454163293E-03    8.9037626857E-03
   -1.6561670711E-03    2.1154539083E-03   -6.0435411241E-03
   -1.3100724121E-03    2.4935777134E-03   -7.5690310035E-03
    7.7479536427E-04    5.6071989732E-03    1.6679090703E-03
    1.9398944197E-03   -1.7118628371E-03   -5.8101730557E-03
    1.3561654440E-03    3.1531275987E-03    1.8331395231E-03
   -6.8481577786E-03   -8.0655998082E-03   -9.6892611169E-03
   -7.4203667788E-05    6.1568913063E-03   -1.0456110795E-03
    9.9864585052E-03   -3.5415224694E-03    8.6454632668E-03
   -6.8946144189E-04    1.4238911328E-03   -6.7492230798E-03
    3.0139299457E-03    2.4621553463E-03   -1.7965634288E-03
    4.8619365389E-03    5.7785603174E-03   -8.7757138163E-03
    3.4608224296E-03    1.7480383060E-03   -4.8791508671E-03
   -5.5051855070E-04   -1.0851548401E-03   -2.4401401482E-03
   -2.4840831852E-03    1.8559328831E-03   -3.3630474980E-03
   -2.2572489353E-02    1.7288666054E-02    2.2946084108E-02
   -9.1605257093E-03    1.0104088600E-03    1.3112882353E-03
    1.7805569514E-03    1.0788050424E-04   -1.2631229627E-03
    1.8359117641E-02   -1.1461257103E-02    2.2284722506E-02
   -2.0306701452E-02    1.7516673340E-02   -2.4564425660E-03
    2.6960364927E-04   -1.4625125651E-03   -4.5012285127E-03
    9.0692371921E-03    2.9890727115E-03   -1.3210970593E-03
    6.0111427362E-04    1.2847544933E-02   -1.8211418093E-02
   -1.7419740020E-02    1.6619784357E-03    1.1252935927E-02
    2.1551095875E-03    1.7624396877E-03    1.9468605513E-03
   -4.6545771009E-03    4.5627033639E-03   -9.4191164865E-03
   -6.3235407941E-03    8.9693551674E-03    6.1704637490E-03
    1.1575963618E-02    4.7613951068E-03   -8.6099829291E-03
    2.2887481464E-03   -1.8171085161E-03    2.3510914136E-03
   -1.8998464487E-03   -7.7420997640E-05   -2.9214905739E-03
    2.2967945448E-02    7.8857562789E-02    7.1410614226E-02
   -2.8555698941E-03    2.4936741749E-03   -6.1767558173E-03
    7.0469966861E-04    4.0048844782E-03   -1.3272930764E-03
    6.1533256164E-03    1.4755441646E-03   -2.1149183073E-02
   -2.7025255996E-03   -2.9741870069E-03   -1.5228315482E-03
   -1.9841909348E-02    3.8756796710E-03    1.5472301072E-02
    3.7075207933E-03   -3.2575072472E-02   -8.1500737359E-03
   -8.8961127766E-04    1.0357855378E-03   -3.1545684818E-03
    1.3818752441E-02   -4.9490998947E-03    1.1333337499E-02
    7.6507482271E-03   -1.9835210287E-02   -1.9041511200E-02
    4.3275738971E-03    1.4150139562E-03   -5.5602747952E-03
    5.5444589277E-03    2.2670076767E-03   -1.9042641982E-05
    2.4122272573E-03   -6.6829443395E-03   -6.6635706584E-03
   -3.5965059468E-02    8.7131870457E-03    1.8665399713E-02
   -6.9676314759E-03   -2.6845126180E-03   -3.4516060638E-03
    9.8866326896E-04    2.5592694882E-03   -2.3401555892E-03
    3.2093718134E-02   -3.6534063138E-03    1.4608415309E-03
   -1.6822379669E-02   -1.2305837877E-02    1.4347494583E-02
    3.3861844535E-02    4.4452547547E-02   -2.8828906927E-04
   -7.0471749869E-03    7.0752353926E-02    5.6694620593E-02
    4.8031132756E-02    8.4585050617E-02    1.8952220169E-02
    3.0370573951E-03   -2.4788943290E-02    8.0306020507E-02
    4.9393709795E-02    9.4387865779E-02   -7.4799445552E-02
   -1.2141692286E-02   -3.3330455820E-02    7.6861551177E-03
   -3.6389409923E-02   -3.8999017825E-02    1.2712923532E-01
   -1.1408177554E-02   -2.7383118315E-02    1.2201458924E-02
   -9.9248257701E-04   -5.5195051718E-02    1.9533286332E-02
    9.0028836613E-02   -2.5890616746E-01   -1.2120026939E-01
   -4.3660247481E-02    9.8447037067E-04    5.9958911632E-02
   -2.2470130386E-01    6.8338052989E-01    8.1629739894E-02
    5.5063092267E-02   -6.0356513306E-02   -6.2130754422E-02
   -3.4668754363E-02    8.3886706526E-03   -6.9053501081E-03
   -5.5544908563E-02   -1.3744381781E-01    2.2869507181E-02
   -2.2077293723E-02   -6.1834040361E-02   -6.2653338115E-03
   -1.0481442608E-02   -4.1628929080E-02    2.3252992458E-02
    1.2668097069E-02   -4.2061015315E-02    3.3873376587E-02
   -8.8980606317E-03   -3.1159904626E-02    6.5327174777E-02
    1.2924272837E-01   -2.8988149695E-01   -1.3622879613E-01
    9.9714242122E-02   -1.7675186568E-01   -1.7484312231E-01
   -2.1984580714E-02   -8.6100505816E-02   -1.5108944087E-02
 Dimer: -----------------
 Dimer: Itr    1 Rot    0

 Dimer: Central Point
 Dimer: F0      0.170121

 Dimer: Projection
 Dimer: N*F0  7.023488433237103E-003
 Dimer: F0sq  2.894099010331329E-002
 Dimer: Feffsq   4.932938977181535E-005
 Dimer: Feff
    0.0000000000E+00    0.0000000000E+00    0.0000000000E+00
    0.0000000000E+00    0.0000000000E+00    0.0000000000E+00
    0.0000000000E+00    0.0000000000E+00    0.0000000000E+00
    0.0000000000E+00    0.0000000000E+00    0.0000000000E+00
    0.0000000000E+00    0.0000000000E+00    0.0000000000E+00
    0.0000000000E+00    0.0000000000E+00    0.0000000000E+00
    0.0000000000E+00    0.0000000000E+00    0.0000000000E+00
    0.0000000000E+00    0.0000000000E+00    0.0000000000E+00
    0.0000000000E+00    0.0000000000E+00    0.0000000000E+00
    0.0000000000E+00    0.0000000000E+00    0.0000000000E+00
    0.0000000000E+00    0.0000000000E+00    0.0000000000E+00
    0.0000000000E+00    0.0000000000E+00    0.0000000000E+00
    0.0000000000E+00    0.0000000000E+00    0.0000000000E+00
    0.0000000000E+00    0.0000000000E+00    0.0000000000E+00
    0.0000000000E+00    0.0000000000E+00    0.0000000000E+00
    0.0000000000E+00    0.0000000000E+00    0.0000000000E+00
   -8.9928384835E-06   -1.4514359764E-05    8.4114897862E-06
    7.9777142305E-06   -3.8644110327E-06    1.4400013902E-05
   -5.8973044512E-06   -2.2593911738E-05    4.7061149160E-06
    2.5691976884E-05    1.2990350532E-05   -4.4899664853E-05
    6.1030023610E-06   -5.2715474155E-06   -3.1854472666E-06
   -1.3232952906E-06   -8.5910561903E-06    7.2450717302E-06
    1.3090475909E-05    7.8350343927E-06   -3.3463068265E-05
    1.6313850640E-05   -2.2167128162E-05   -9.1413357195E-06
    4.3114972930E-07   -2.9798314158E-06   -9.5908717916E-06
    3.2498364975E-06   -1.3649236058E-06    2.0398324099E-05
   -1.1558911782E-05   -1.8252811485E-06    2.5661857246E-06
    8.3826763274E-06   -2.5862975719E-05    1.4832681110E-05
   -7.1327872986E-06   -1.9724878158E-06   -8.2925785472E-06
    1.5257052900E-05   -2.0088164872E-05    4.0228049067E-05
   -1.2429979928E-06   -4.8305452721E-05   -6.2314781717E-05
   -1.9977969712E-05   -1.1192359669E-05    5.3684778734E-05
   -1.3320775432E-05    2.0745841956E-05   -3.9519481972E-06
   -8.9428889797E-06   -1.5694728874E-05    1.8441559947E-05
    5.4069893645E-05   -1.7967306548E-05   -6.0574010399E-06
    6.2688409047E-05   -6.2040891814E-05   -1.2427625268E-05
    1.5486109104E-05   -1.5248968357E-05   -1.2207278454E-05
    1.5448091909E-05   -2.1676571307E-05    3.5171161862E-05
   -8.5469149252E-06    1.8743744109E-05    1.1866284089E-05
   -7.8796553472E-05   -1.5043794289E-04    3.9283807971E-05
   -1.8773346075E-05   -3.3102500764E-05    2.8495468841E-05
   -3.0633892311E-05    7.4986129623E-06    1.8279075787E-05
   -8.0614570769E-06   -2.5587271088E-06    1.4011659617E-05
    1.8737294098E-04   -8.6828867325E-05   -2.6659056830E-04
    1.2373135308E-04   -2.1085769305E-05   -3.4005532342E-06
   -1.1827632737E-05   -8.5450343258E-06    8.1524414152E-06
   -6.5435315230E-05   -4.5121942445E-05   -6.5722331033E-05
    7.9866658498E-06   -1.5031351895E-05   -1.1021941121E-05
   -6.2396072729E-04   -1.0630884572E-03   -1.3006564713E-04
    0.0000000000E+00    0.0000000000E+00    0.0000000000E+00
    0.0000000000E+00    0.0000000000E+00    0.0000000000E+00
    0.0000000000E+00    0.0000000000E+00    0.0000000000E+00
    0.0000000000E+00    0.0000000000E+00    0.0000000000E+00
    0.0000000000E+00    0.0000000000E+00    0.0000000000E+00
    0.0000000000E+00    0.0000000000E+00    0.0000000000E+00
    0.0000000000E+00    0.0000000000E+00    0.0000000000E+00
    0.0000000000E+00    0.0000000000E+00    0.0000000000E+00
    0.0000000000E+00    0.0000000000E+00    0.0000000000E+00
    0.0000000000E+00    0.0000000000E+00    0.0000000000E+00
    0.0000000000E+00    0.0000000000E+00    0.0000000000E+00
    0.0000000000E+00    0.0000000000E+00    0.0000000000E+00
    0.0000000000E+00    0.0000000000E+00    0.0000000000E+00
    0.0000000000E+00    0.0000000000E+00    0.0000000000E+00
    0.0000000000E+00    0.0000000000E+00    0.0000000000E+00
    0.0000000000E+00    0.0000000000E+00    0.0000000000E+00
    0.0000000000E+00    0.0000000000E+00    0.0000000000E+00
    0.0000000000E+00    0.0000000000E+00    0.0000000000E+00
    0.0000000000E+00    0.0000000000E+00    0.0000000000E+00
    0.0000000000E+00    0.0000000000E+00    0.0000000000E+00
    0.0000000000E+00    0.0000000000E+00    0.0000000000E+00
    0.0000000000E+00    0.0000000000E+00    0.0000000000E+00
    0.0000000000E+00    0.0000000000E+00    0.0000000000E+00
    0.0000000000E+00    0.0000000000E+00    0.0000000000E+00
    0.0000000000E+00    0.0000000000E+00    0.0000000000E+00
    0.0000000000E+00    0.0000000000E+00    0.0000000000E+00
    0.0000000000E+00    0.0000000000E+00    0.0000000000E+00
    0.0000000000E+00    0.0000000000E+00    0.0000000000E+00
    0.0000000000E+00    0.0000000000E+00    0.0000000000E+00
    0.0000000000E+00    0.0000000000E+00    0.0000000000E+00
    0.0000000000E+00    0.0000000000E+00    0.0000000000E+00
    0.0000000000E+00    0.0000000000E+00    0.0000000000E+00
    1.1359753547E-05   -2.1221903609E-05    2.6776765131E-05
    1.3219706881E-05    3.6683016113E-06    6.6701154921E-06
    1.9321575275E-06   -2.1155940105E-05    2.0673910585E-05
   -2.1770533568E-05   -8.2768395979E-06   -4.7254414558E-05
   -4.2629164296E-06   -1.3748805024E-05    3.5605873481E-06
    1.2919075293E-05    1.2146480199E-05    2.4241320021E-05
   -4.3373028336E-06   -2.0418147978E-05    9.6192299071E-06
   -1.4872830286E-05    2.1559922416E-05    1.5216540089E-05
    3.5298389314E-06    1.5833662692E-05    1.0617663761E-05
    4.7820324317E-06   -1.4355402123E-05    9.5021743145E-06
    4.6064477795E-06    9.1001962822E-06    4.8524112330E-06
   -5.7091495778E-06   -1.9606995277E-05    3.6182105044E-07
   -8.5675529761E-07   -5.4768224301E-06    2.0886983940E-05
   -8.3061504335E-06   -2.4521187205E-05   -1.6159160939E-05
    9.5917665103E-05   -2.2900909694E-04    4.7732060232E-05
    1.9598908262E-05    4.8380002906E-06   -8.5373863439E-05
    2.1479325534E-05    1.2258911400E-05   -6.2535474235E-05
    1.1632070267E-05   -1.4857866056E-05    4.2446741181E-05
    9.2012784331E-06   -1.7513614227E-05    5.3161001704E-05
   -5.4417662791E-06   -3.9382097131E-05   -1.1714540063E-05
   -1.3624826018E-05    1.2023248836E-05    4.0807683252E-05
   -9.5250123095E-06   -2.2145955218E-05   -1.2875034237E-05
    4.8097956947E-05    5.6648646960E-05    6.8052413381E-05
    5.2116860241E-07   -4.3242854874E-05    7.3438373225E-06
   -7.0139775800E-05    2.4873842100E-05   -6.0721311254E-05
    4.8424244623E-06   -1.0000682901E-05    4.7403090234E-05
   -2.1168302112E-05   -1.7292919596E-05    1.2618142462E-05
   -3.4147755044E-05   -4.0585651550E-05    6.1636124482E-05
   -2.4307046304E-05   -1.2277326823E-05    3.4268659679E-05
    3.8665606731E-06    7.6215724677E-06    1.7138296106E-05
    1.7446929518E-05   -1.3035123137E-05    2.3620325203E-05
    1.5853761788E-04   -1.2142674606E-04   -1.6116155632E-04
    6.4338846362E-05   -7.0965949410E-06   -9.2098177533E-06
   -1.2505721153E-05   -7.5769747370E-07    8.8715295183E-06
   -1.2894505040E-04    8.0498006693E-05   -1.5651649076E-04
    1.4262388277E-04   -1.2302815259E-04    1.7252795949E-05
   -1.8935581122E-06    1.0271940084E-05    3.1614326394E-05
   -6.3697682517E-05   -2.0993717615E-05    9.2787099152E-06
   -4.2219191478E-06   -9.0234583232E-05    1.2790768433E-04
    1.2234734254E-04   -1.1672886319E-05   -7.9034865323E-05
   -1.5136387260E-05   -1.2378474761E-05   -1.3673752563E-05
    3.2691368430E-05   -3.2046094301E-05    6.6155055694E-05
    4.4413315624E-05   -6.2996162272E-05   -4.3338180769E-05
   -8.1303646574E-05   -3.3441603459E-05    6.0472115513E-05
   -1.6074996133E-05    1.2762440645E-05   -1.6512863349E-05
    1.3343549557E-05    5.4376548141E-07    2.0519055254E-05
   -1.6131509919E-04   -5.5385518012E-04   -5.0155162303E-04
    2.0056062121E-05   -1.7514291724E-05    4.3382373038E-05
   -4.9494499714E-06   -2.8128259809E-05    9.3222275696E-06
   -4.3217811293E-05   -1.0363467373E-05    1.4854104269E-04
    1.8981157289E-05    2.0889168041E-05    1.0695589765E-05
    1.3935942080E-04   -2.7220791340E-05   -1.0866952761E-04
   -2.6039729408E-05    2.2879064472E-04    5.7241948614E-05
    6.2481745187E-06   -7.2748277440E-06    2.2156075244E-05
   -9.7055847931E-05    3.4759945865E-05   -7.9599564834E-05
   -5.3734941679E-05    1.3931237002E-04    1.3373783366E-04
   -3.0394665210E-05   -9.9383341542E-06    3.9052525710E-05
   -3.8941443147E-05   -1.5922302195E-05    1.3374577570E-07
   -1.6942250240E-05    4.6937582268E-05    4.6801511443E-05
    2.5260017917E-04   -6.1196968432E-05   -1.3109621899E-04
    4.8937079078E-05    1.8854643321E-05    2.4242315265E-05
   -6.9438650339E-06   -1.7974999648E-05    1.6436055713E-05
   -2.2540985809E-04    2.5659656987E-05   -1.0260203595E-05
    1.1815178902E-04    8.6429909990E-05   -1.0076946225E-04
   -2.3782827342E-04   -3.1221195352E-04    2.0247949434E-06
    4.9495752007E-05   -4.9692833942E-04   -3.9819401196E-04
   -3.3734610535E-04   -5.9408212463E-04   -1.3311069914E-04
   -2.1330737486E-05    1.7410485647E-04   -5.6402840615E-04
   -3.4691614942E-04   -6.6293208354E-04    5.2535304065E-04
    8.5277035330E-05    2.3409607093E-04   -5.3983621565E-05
    2.5558059969E-04    2.7390915060E-04   -8.9289071379E-04
    8.0125203095E-05    1.9232501475E-04   -8.5696805621E-05
    6.9706898998E-06    3.8766180731E-04   -1.3719181062E-04
   -6.3231649261E-04    1.8184244724E-03    8.5124869016E-04
    3.0664724317E-04   -6.9144162613E-06   -4.2112072232E-04
    1.5781870086E-03   -4.7997152472E-03   -5.7332553395E-04
   -3.8673499163E-04    4.2391327307E-04    4.3637463503E-04
    2.4349559526E-04   -5.8917731299E-05    4.8499646612E-05
    3.9011902282E-04    9.6533506461E-04   -1.6062371916E-04
    1.5505961710E-04    4.3429066725E-04    4.4004499555E-05
    7.3616290921E-05    2.9238030188E-04   -1.6331712357E-04
   -8.8974233235E-05    2.9541505455E-04   -2.3790926865E-04
    6.2495425925E-05    2.1885122972E-04   -4.5882465642E-04
   -9.0773480778E-04    2.0359793408E-03    9.5680137389E-04
   -7.0034182617E-04    1.2414146842E-03    1.2280086472E-03
    1.5440844835E-04    6.0472590669E-04    1.0611749403E-04
 
 stress matrix after NEB project (eV)
    -55.27857    -25.09377     -0.30818
    -25.09377    -72.13418     -0.00914
     -0.30818     -0.00914     -8.37436
  FORCES: max atom, RMS     0.045309    0.013164
  FORCE total and by dimension    0.170121    0.038354
  Stress total and by dimension   97.922292   72.134178
 OPT: skip step - force has converged
 writing wavefunctions
     LOOP+:  cpu time  576.6438: real time  617.9973
    4ORBIT:  cpu time    0.0000: real time    0.0000

 total amount of memory used by VASP MPI-rank0    92404. kBytes
=======================================================================

   base      :      30000. kBytes
   nonlr-proj:       9141. kBytes
   fftplans  :       4220. kBytes
   grid      :      12288. kBytes
   one-center:        342. kBytes
   wavefun   :      36413. kBytes
 
  
  
 General timing and accounting informations for this job:
 ========================================================
  
                  Total CPU time used (sec):      899.489
                            User time (sec):      654.122
                          System time (sec):      245.367
                         Elapsed time (sec):      946.782
  
                   Maximum memory used (kb):      931224.
                   Average memory used (kb):           0.
  
                          Minor page faults:        57868
                          Major page faults:           55
                 Voluntary context switches:        14052
