       N       E                     dE             d eps       ncg     rms          rms(c)
DAV:   1    -0.132817535647E+04   -0.13282E+04   -0.12881E+00  6304   0.970E-01    0.946E-01
DAV:   2    -0.132990567932E+04   -0.17303E+01   -0.11487E+00  6080   0.942E-01    0.403E-01
DAV:   3    -0.132991537179E+04   -0.96925E-02   -0.40381E-02  6720   0.224E-01    0.274E-01
DAV:   4    -0.132991541536E+04   -0.43565E-04   -0.20237E-03  5600   0.557E-02    0.222E-01
DAV:   5    -0.132991542530E+04   -0.99429E-05   -0.19459E-04  6688   0.177E-02    0.187E-01
DAV:   6    -0.132991543783E+04   -0.12533E-04   -0.21178E-05  6528   0.688E-03    0.163E-01
DAV:   7    -0.132991544820E+04   -0.10371E-04   -0.24371E-05  6656   0.841E-03    0.128E-01
DAV:   8    -0.132991545452E+04   -0.63137E-05   -0.15903E-05  5952   0.626E-03    0.106E-01
DAV:   9    -0.132991545966E+04   -0.51436E-05   -0.43653E-06  4064   0.342E-03    0.897E-02
DAV:  10    -0.132991546692E+04   -0.72629E-05   -0.30731E-05  6624   0.899E-03    0.477E-02
DAV:  11    -0.132991547135E+04   -0.44305E-05   -0.26752E-05  6688   0.827E-03    0.143E-02
DAV:  12    -0.132991547225E+04   -0.89679E-06   -0.22370E-06  3264   0.232E-03
   1 F= -.13489468E+04 E0= -.13489468E+04  d E =-.787275E-21  mag=    -0.0000
