 vasp.5.4.4.18Apr17-6-g9f103f2a35 (build Oct 18 2017 12:32:39) complex          
  
 executed on             LinuxIFC date 2021.10.27  20:08:33
 running on   48 total cores
 distrk:  each k-point on   48 cores,    1 groups
 distr:  one band on NCORES_PER_BAND=   6 cores,    8 groups


--------------------------------------------------------------------------------------------------------


 INCAR:
 POTCAR:    PAW_PBE Zr_sv 04Jan2005               
 POTCAR:    PAW_PBE O 08Apr2002                   
 POTCAR:    PAW_PBE H 15Jun2001                   
 POTCAR:    PAW_PBE C 08Apr2002                   
 POTCAR:    PAW_PBE Zr_sv 04Jan2005               
   VRHFIN =Zr: 4s4p5s4d                                                         
   LEXCH  = PE                                                                  
   EATOM  =  1284.2219 eV,   94.3876 Ry                                         
                                                                                
   TITEL  = PAW_PBE Zr_sv 04Jan2005                                             
   LULTRA =        F    use ultrasoft PP ?                                      
   IUNSCR =        1    unscreen: 0-lin 1-nonlin 2-no                           
   RPACOR =    2.200    partial core radius                                     
   POMASS =   91.224; ZVAL   =   12.000    mass and valenz                      
   RCORE  =    2.500    outmost cutoff radius                                   
   RWIGS  =    3.070; RWIGS  =    1.625    wigner-seitz radius (au A)           
   ENMAX  =  229.898; ENMIN  =  172.424 eV                                      
   ICORE  =        3    local potential                                         
   LCOR   =        T    correct aug charges                                     
   LPAW   =        T    paw PP                                                  
   EAUG   =  461.257                                                            
   DEXC   =    0.000                                                            
   RMAX   =    2.561    core radius for proj-oper                               
   RAUG   =    1.300    factor for augmentation sphere                          
   RDEP   =    2.597    radius for radial grids                                 
   RDEPT  =    2.007    core radius for aug-charge                              
                                                                                
   Atomic configuration                                                         
   11 entries                                                                   
     n  l   j            E        occ.                                          
     1  0  0.50    -17820.0161   2.0000                                         
     2  0  0.50     -2467.0882   2.0000                                         
     2  1  1.50     -2199.6095   6.0000                                         
     3  0  0.50      -402.4863   2.0000                                         
     3  1  1.50      -315.3675   6.0000                                         
     3  2  2.50      -172.4472  10.0000                                         
     4  0  0.50       -52.4146   2.0000                                         
     5  0  0.50        -3.8421   1.0000                                         
     4  1  1.50       -30.5054   6.0000                                         
     4  2  2.50        -2.3341   3.0000                                         
     4  3  2.50        -1.3606   0.0000                                         
   Description                                                                  
     l       E           TYP  RCUT    TYP  RCUT                                 
     0    -52.4145962     23  2.200                                             
     0     -3.8421270     23  2.500                                             
     1    -30.5053914     23  2.200                                             
     1     20.4087390     23  2.200                                             
     2     -2.3340816     23  2.500                                             
     2     -0.6120942     23  2.500                                             
     3     -4.0817478     23  2.500                                             
  local pseudopotential read in
  partial core-charges read in
  partial kinetic energy density read in
  atomic valenz-charges read in
  non local Contribution for L=           0  read in
    real space projection operators read in
  non local Contribution for L=           0  read in
    real space projection operators read in
  non local Contribution for L=           1  read in
    real space projection operators read in
  non local Contribution for L=           1  read in
    real space projection operators read in
  non local Contribution for L=           2  read in
    real space projection operators read in
  non local Contribution for L=           2  read in
    real space projection operators read in
    PAW grid and wavefunctions read in
 
   number of l-projection  operators is LMAX  =           6
   number of lm-projection operators is LMMAX =          18
 
 POTCAR:    PAW_PBE O 08Apr2002                   
   VRHFIN =O: s2p4                                                              
   LEXCH  = PE                                                                  
   EATOM  =   432.3788 eV,   31.7789 Ry                                         
                                                                                
   TITEL  = PAW_PBE O 08Apr2002                                                 
   LULTRA =        F    use ultrasoft PP ?                                      
   IUNSCR =        1    unscreen: 0-lin 1-nonlin 2-no                           
   RPACOR =    1.200    partial core radius                                     
   POMASS =   16.000; ZVAL   =    6.000    mass and valenz                      
   RCORE  =    1.520    outmost cutoff radius                                   
   RWIGS  =    1.550; RWIGS  =    0.820    wigner-seitz radius (au A)           
   ENMAX  =  400.000; ENMIN  =  300.000 eV                                      
   ICORE  =        2    local potential                                         
   LCOR   =        T    correct aug charges                                     
   LPAW   =        T    paw PP                                                  
   EAUG   =  605.392                                                            
   DEXC   =    0.000                                                            
   RMAX   =    1.553    core radius for proj-oper                               
   RAUG   =    1.300    factor for augmentation sphere                          
   RDEP   =    1.550    radius for radial grids                                 
   RDEPT  =    1.329    core radius for aug-charge                              
                                                                                
   Atomic configuration                                                         
    4 entries                                                                   
     n  l   j            E        occ.                                          
     1  0  0.50      -514.6923   2.0000                                         
     2  0  0.50       -23.9615   2.0000                                         
     2  1  0.50        -9.0305   4.0000                                         
     3  2  1.50        -9.5241   0.0000                                         
   Description                                                                  
     l       E           TYP  RCUT    TYP  RCUT                                 
     0    -23.9615318     23  1.200                                             
     0     -9.5240782     23  1.200                                             
     1     -9.0304911     23  1.520                                             
     1      8.1634956     23  1.520                                             
     2     -9.5240782      7  1.500                                             
  local pseudopotential read in
  partial core-charges read in
  partial kinetic energy density read in
  kinetic energy density of atom read in
  atomic valenz-charges read in
  non local Contribution for L=           0  read in
    real space projection operators read in
  non local Contribution for L=           0  read in
    real space projection operators read in
  non local Contribution for L=           1  read in
    real space projection operators read in
  non local Contribution for L=           1  read in
    real space projection operators read in
    PAW grid and wavefunctions read in
 
   number of l-projection  operators is LMAX  =           4
   number of lm-projection operators is LMMAX =           8
 
 POTCAR:    PAW_PBE H 15Jun2001                   
   VRHFIN =H: ultrasoft test                                                    
   LEXCH  = PE                                                                  
   EATOM  =    12.4884 eV,    0.9179 Ry                                         
                                                                                
   TITEL  = PAW_PBE H 15Jun2001                                                 
   LULTRA =        F    use ultrasoft PP ?                                      
   IUNSCR =        0    unscreen: 0-lin 1-nonlin 2-no                           
   RPACOR =    0.000    partial core radius                                     
   POMASS =    1.000; ZVAL   =    1.000    mass and valenz                      
   RCORE  =    1.100    outmost cutoff radius                                   
   RWIGS  =    0.700; RWIGS  =    0.370    wigner-seitz radius (au A)           
   ENMAX  =  250.000; ENMIN  =  200.000 eV                                      
   RCLOC  =    0.701    cutoff for local pot                                    
   LCOR   =        T    correct aug charges                                     
   LPAW   =        T    paw PP                                                  
   EAUG   =  400.000                                                            
   RMAX   =    1.123    core radius for proj-oper                               
   RAUG   =    1.200    factor for augmentation sphere                          
   RDEP   =    1.112    radius for radial grids                                 
   RDEPT  =    0.926    core radius for aug-charge                              
                                                                                
   Atomic configuration                                                         
    2 entries                                                                   
     n  l   j            E        occ.                                          
     1  0  0.50        -6.4927   1.0000                                         
     2  1  0.50        -3.4015   0.0000                                         
   Description                                                                  
     l       E           TYP  RCUT    TYP  RCUT                                 
     0     -6.4927494     23  1.100                                             
     0      6.8029130     23  1.100                                             
     1     -4.0817478     23  1.100                                             
  local pseudopotential read in
  atomic valenz-charges read in
  non local Contribution for L=           0  read in
    real space projection operators read in
  non local Contribution for L=           0  read in
    real space projection operators read in
  non local Contribution for L=           1  read in
    real space projection operators read in
    PAW grid and wavefunctions read in
 
   number of l-projection  operators is LMAX  =           3
   number of lm-projection operators is LMMAX =           5
 
 POTCAR:    PAW_PBE C 08Apr2002                   
   VRHFIN =C: s2p2                                                              
   LEXCH  = PE                                                                  
   EATOM  =   147.1560 eV,   10.8157 Ry                                         
                                                                                
   TITEL  = PAW_PBE C 08Apr2002                                                 
   LULTRA =        F    use ultrasoft PP ?                                      
   IUNSCR =        1    unscreen: 0-lin 1-nonlin 2-no                           
   RPACOR =    1.200    partial core radius                                     
   POMASS =   12.011; ZVAL   =    4.000    mass and valenz                      
   RCORE  =    1.500    outmost cutoff radius                                   
   RWIGS  =    1.630; RWIGS  =    0.863    wigner-seitz radius (au A)           
   ENMAX  =  400.000; ENMIN  =  300.000 eV                                      
   ICORE  =        2    local potential                                         
   LCOR   =        T    correct aug charges                                     
   LPAW   =        T    paw PP                                                  
   EAUG   =  644.873                                                            
   DEXC   =    0.000                                                            
   RMAX   =    1.529    core radius for proj-oper                               
   RAUG   =    1.300    factor for augmentation sphere                          
   RDEP   =    1.501    radius for radial grids                                 
   RDEPT  =    1.300    core radius for aug-charge                              
                                                                                
   Atomic configuration                                                         
    4 entries                                                                   
     n  l   j            E        occ.                                          
     1  0  0.50      -273.3789   2.0000                                         
     2  0  0.50       -13.7508   2.0000                                         
     2  1  0.50        -5.2854   2.0000                                         
     3  2  1.50        -5.4423   0.0000                                         
   Description                                                                  
     l       E           TYP  RCUT    TYP  RCUT                                 
     0    -13.7508458     23  1.200                                             
     0     -8.2022199     23  1.200                                             
     1     -5.2854383     23  1.500                                             
     1     34.0145650     23  1.500                                             
     2     -5.4423304      7  1.500                                             
  local pseudopotential read in
  partial core-charges read in
  partial kinetic energy density read in
  atomic valenz-charges read in
  non local Contribution for L=           0  read in
    real space projection operators read in
  non local Contribution for L=           0  read in
    real space projection operators read in
  non local Contribution for L=           1  read in
    real space projection operators read in
  non local Contribution for L=           1  read in
    real space projection operators read in
    PAW grid and wavefunctions read in
 
   number of l-projection  operators is LMAX  =           4
   number of lm-projection operators is LMMAX =           8
 
 Optimization of the real space projectors (new method)

 maximal supplied QI-value         = 15.12
 optimisation between [QCUT,QGAM] = [ 11.34, 22.83] = [ 36.00,145.93] Ry 
 Optimized for a Real-space Cutoff    1.47 Angstroem

   l    n(q)    QCUT    max X(q) W(low)/X(q) W(high)/X(q)  e(spline) 
   0     10    11.338    12.107    0.38E-04    0.13E-04    0.27E-07
   0     10    11.338     9.948    0.69E-04    0.30E-04    0.38E-07
   1     10    11.338     3.563    0.26E-04    0.18E-04    0.40E-07
   1     10    11.338     4.524    0.25E-03    0.39E-04    0.44E-06
   2      9    11.338    87.261    0.26E-03    0.91E-05    0.26E-06
   2      9    11.338    70.950    0.25E-03    0.91E-05    0.25E-06
 Optimization of the real space projectors (new method)

 maximal supplied QI-value         = 24.76
 optimisation between [QCUT,QGAM] = [ 11.39, 22.77] = [ 36.31,145.25] Ry 
 Optimized for a Real-space Cutoff    1.00 Angstroem

   l    n(q)    QCUT    max X(q) W(low)/X(q) W(high)/X(q)  e(spline) 
   0      7    11.387    20.381    0.39E-03    0.13E-02    0.15E-06
   0      7    11.387    15.268    0.42E-03    0.14E-02    0.17E-06
   1      6    11.387     5.964    0.41E-03    0.11E-02    0.17E-06
   1      6    11.387     5.382    0.39E-03    0.87E-03    0.15E-06
 Optimization of the real space projectors (new method)

 maximal supplied QI-value         = 34.20
 optimisation between [QCUT,QGAM] = [ 11.29, 22.57] = [ 35.68,142.71] Ry 
 Optimized for a Real-space Cutoff    1.16 Angstroem

   l    n(q)    QCUT    max X(q) W(low)/X(q) W(high)/X(q)  e(spline) 
   0      8    11.287    19.460    0.40E-03    0.73E-03    0.16E-06
   0      8    11.287    12.209    0.38E-03    0.70E-03    0.15E-06
   1      7    11.287     4.655    0.22E-03    0.25E-04    0.22E-06
 Optimization of the real space projectors (new method)

 maximal supplied QI-value         = 25.13
 optimisation between [QCUT,QGAM] = [ 11.31, 22.87] = [ 35.82,146.48] Ry 
 Optimized for a Real-space Cutoff    1.00 Angstroem

   l    n(q)    QCUT    max X(q) W(low)/X(q) W(high)/X(q)  e(spline) 
   0      7    11.310   115.676    0.43E-03    0.13E-02    0.19E-06
   0      7    11.310    87.132    0.43E-03    0.13E-02    0.18E-06
   1      6    11.310     4.429    0.42E-03    0.74E-03    0.11E-06
   1      6    11.310     2.733    0.34E-03    0.55E-03    0.92E-07
  PAW_PBE Zr_sv 04Jan2005               :
 energy of atom  1       EATOM=-1284.2219
 kinetic energy error for atom=    0.0049 (will be added to EATOM!!)
  PAW_PBE O 08Apr2002                   :
 energy of atom  2       EATOM= -432.3788
 kinetic energy error for atom=    0.0224 (will be added to EATOM!!)
  PAW_PBE H 15Jun2001                   :
 energy of atom  3       EATOM=  -12.4884
 kinetic energy error for atom=    0.0020 (will be added to EATOM!!)
  PAW_PBE C 08Apr2002                   :
 energy of atom  4       EATOM= -147.1560
 kinetic energy error for atom=    0.0076 (will be added to EATOM!!)
 
 
 POSCAR: Zr   O    H    C                        
  positions in direct lattice
  velocities in cartesian coordinates
  No initial velocities read in
 exchange correlation table for  LEXCH =        8
   RHO(1)=    0.500       N(1)  =     2000
   RHO(2)=  100.500       N(2)  =     4000

 VTST: version 3.1, (03/28/14)

 CHAIN: initializing optimizer
 
 OPT: Using Conjugate-Gradient optimizer
 OPT: CG, Init
 OPT: CG, FDSTEP      0.005000
 OPT: CG, MAXMOVE      0.200000
 
 CHAIN: Read ICHAIN            2
 
 POSCAR: Zr   O    H    C                        
  positions in direct lattice
  velocities in cartesian coordinates
  No initial velocities read in
 CHAIN: Running the Dimer method

 Dimer: -----------------
 Dimer: Input Parameters
 Dimer:   Seed      0
 Dimer: RotMax      4
 Dimer:     dR      0.005000
 Dimer:  FNMax      1.000000
 Dimer:  FNMin      0.010000
 Dimer: -----------------
 


--------------------------------------------------------------------------------------------------------


 ion  position               nearest neighbor table
   1  0.088  0.321  0.038-  78 2.10  62 2.10  50 2.18  74 2.19  61 2.26  54 2.30  16 3.37   6 3.50
                            12 3.52  13 3.65
   2  0.338  0.821  0.038-  79 2.10  63 2.10  51 2.18  75 2.19  58 2.26  55 2.30  13 3.37   7 3.50
                             9 3.52  14 3.65
   3  0.588  0.321  0.038-  80 2.10  64 2.10  52 2.18  76 2.19  59 2.26  56 2.30  14 3.37   8 3.50
                            10 3.52  15 3.65
   4  0.838  0.821  0.038-  81 2.10  65 2.10  53 2.18  77 2.19  60 2.26  57 2.30  15 3.37   5 3.50
                            11 3.52  16 3.65
   5  0.070  0.834  0.049-  82 2.07  66 2.10  65 2.18  58 2.19  57 2.22  70 2.30  12 3.37  17 3.46
                             4 3.50  16 3.52   9 3.65
   6  0.320  0.334  0.049-  83 2.06  67 2.10  62 2.18  59 2.19  54 2.22  71 2.30   9 3.37  18 3.47
                             1 3.50  13 3.52  10 3.65
   7  0.570  0.834  0.049-  84 2.06  68 2.10  63 2.18  60 2.19  55 2.22  72 2.30  10 3.37  19 3.48
                             2 3.50  14 3.52  11 3.65
   8  0.820  0.334  0.049-  85 2.08  69 2.10  64 2.18  61 2.19  56 2.22  73 2.30  11 3.37   3 3.50
                            20 3.51  15 3.52  12 3.65
   9  0.238  0.068  0.057-  62 2.10  86 2.16  67 2.18  70 2.19  75 2.22  58 2.30   6 3.37  17 3.49
                            14 3.50  22 3.51   2 3.52   5 3.65
  10  0.488  0.568  0.057-  63 2.10  87 2.17  68 2.18  71 2.19  76 2.22  59 2.30   7 3.37  18 3.48
                            15 3.50  23 3.51   3 3.52   6 3.65
  11  0.738  0.068  0.057-  64 2.10  69 2.18  88 2.18  72 2.19  77 2.22  60 2.30   8 3.37  19 3.47
                            16 3.50   4 3.52  24 3.53   7 3.65
  12  0.988  0.568  0.057-  65 2.10  66 2.18  89 2.18  73 2.19  74 2.22  61 2.30   5 3.37  13 3.50
                             1 3.52  21 3.53  20 3.53   8 3.65
  13  0.220  0.581  0.068-  51 2.10  66 2.10  79 2.18  54 2.19  90 2.26  71 2.26  74 2.30   2 3.37
                            26 3.49  21 3.50  18 3.50  12 3.50   6 3.52   1 3.65
  14  0.470  0.081  0.068-  52 2.10  67 2.10  80 2.18  55 2.19  72 2.26  91 2.27  75 2.30   3 3.37
                            27 3.47  22 3.49   9 3.50  19 3.52   7 3.52   2 3.65
  15  0.720  0.581  0.068-  53 2.10  68 2.10  81 2.18  56 2.19  73 2.26  92 2.26  76 2.30   4 3.37
                            23 3.49  28 3.49  10 3.50   8 3.52  20 3.54   3 3.65
  16  0.970  0.081  0.068-  50 2.10  69 2.10  78 2.18  57 2.19  70 2.26  93 2.26  77 2.30   1 3.37
                            17 3.50  25 3.50  11 3.50  24 3.50   5 3.52   4 3.65
  17  0.106  0.982  0.171-  94 2.09 110 2.13  82 2.16  70 2.19 106 2.19  93 2.23  86 2.31  32 3.40
                             5 3.46   9 3.49  16 3.50  22 3.52  25 3.54  29 3.67
  18  0.356  0.483  0.171-  95 2.09 111 2.13  83 2.16  71 2.19 107 2.19  90 2.23  87 2.30  29 3.37
                             6 3.47  10 3.48  13 3.50  23 3.52  26 3.54  30 3.65
  19  0.608  0.984  0.171-  96 2.09 112 2.14  84 2.18  72 2.19 108 2.20  91 2.23  88 2.28  30 3.39
                            11 3.47   7 3.48  24 3.49  14 3.52  27 3.52  31 3.69
  20  0.855  0.483  0.173-  97 2.10 113 2.11  85 2.18 109 2.20  92 2.23  73 2.24  89 2.32  31 3.32
                            28 3.49   8 3.51  21 3.53  12 3.53  15 3.54  32 3.64
  21  0.089  0.494  0.183- 114 2.09  98 2.11  97 2.17  90 2.18  74 2.24  89 2.27 102 2.29  25 3.37
                            13 3.50  32 3.51  20 3.53  12 3.53  26 3.62  33 3.64
  22  0.339  0.995  0.182- 115 2.10  99 2.11  94 2.17  91 2.19  75 2.23 103 2.25  86 2.27  26 3.38
                            14 3.49  29 3.51   9 3.51  17 3.52  34 3.60  27 3.62
  23  0.589  0.492  0.182- 100 2.08 116 2.11  95 2.17  92 2.18  76 2.22  87 2.29 104 2.31  27 3.36
                            15 3.49  35 3.49  10 3.51  18 3.52  30 3.57  28 3.69
  24  0.838  0.995  0.183- 117 2.10 101 2.10  96 2.18  93 2.18  77 2.25  88 2.27 105 2.28  28 3.37
                            19 3.49  16 3.50  11 3.53  31 3.54  36 3.61  25 3.64
  25  0.004  0.230  0.191-  78 2.10  97 2.10 121 2.17  98 2.19 105 2.21 106 2.29  93 2.29  21 3.37
                            37 3.45  16 3.50  17 3.54  29 3.55  24 3.64  36 3.66
  26  0.253  0.730  0.191-  94 2.10  79 2.10 102 2.18  99 2.20 118 2.20 107 2.28  90 2.29  22 3.38
                            38 3.45  13 3.49  18 3.54  30 3.54  21 3.62  33 3.66
  27  0.504  0.228  0.191-  80 2.09  95 2.11 119 2.17 100 2.19 103 2.19  91 2.28 108 2.30  23 3.36
                            39 3.47  14 3.47  19 3.52  31 3.59  22 3.62  34 3.66
  28  0.758  0.729  0.191-  81 2.08  96 2.11 101 2.16 120 2.22 104 2.23 109 2.24  92 2.30  24 3.37
                            35 3.49  32 3.49  15 3.49  20 3.49  40 3.58  23 3.69
  29  0.239  0.241  0.201-  98 2.10  83 2.10 122 2.19 103 2.21 111 2.21  86 2.23 106 2.28  18 3.37
                            37 3.41  42 3.50  22 3.51  25 3.55  34 3.63  17 3.67
  30  0.487  0.743  0.199-  99 2.08  84 2.09 112 2.20 123 2.20  87 2.22 104 2.25 107 2.30  19 3.39
                            38 3.45  35 3.48  43 3.50  26 3.54  23 3.57  18 3.65
  31  0.741  0.245  0.204-  85 2.11 100 2.12 113 2.12 105 2.22 124 2.25  88 2.29 108 2.31  20 3.32
                            39 3.45  24 3.54  44 3.55  27 3.59  36 3.63  19 3.69
  32  0.988  0.740  0.203- 101 2.11  82 2.14 110 2.19 102 2.21 125 2.22  89 2.22 109 2.26  17 3.40
                            41 3.46  28 3.49  21 3.51  40 3.52  33 3.63  20 3.64
  33  0.122  0.641  0.314- 142 2.02 126 2.16 138 2.17 114 2.21 125 2.23 118 2.38 102 2.42  45 3.23
                            41 3.47  38 3.54  32 3.63  21 3.64  26 3.66  46 3.71
  34  0.371  0.139  0.313- 143 2.03 127 2.14 139 2.18 115 2.19 122 2.24 119 2.36 103 2.43  46 3.22
                            42 3.49  39 3.53  22 3.60  29 3.63  47 3.64  27 3.66
  35  0.621  0.647  0.303- 140 2.14 123 2.18 104 2.19 116 2.19 128 2.19 120 2.24 144 2.25  49 3.20
                            43 3.43  47 3.43  30 3.48  28 3.49  23 3.49  40 3.59  48 3.71
  36  0.874  0.137  0.314- 145 2.03 129 2.12 141 2.14 117 2.22 124 2.30 105 2.38 121 2.45  48 3.22
                            44 3.41  37 3.55  24 3.61  31 3.63  25 3.66  45 3.76
  37  0.109  0.160  0.312- 130 2.09 121 2.14 106 2.16 129 2.16 122 2.16 134 2.17  29 3.41  25 3.45
                            41 3.45  45 3.51  36 3.55  42 3.58
  38  0.358  0.659  0.312- 131 2.10 126 2.15 107 2.16 118 2.16 135 2.16 123 2.17  42 3.44  30 3.45
                            26 3.45  46 3.53  33 3.54  43 3.59
  39  0.605  0.157  0.314- 136 2.09 132 2.11 127 2.15 108 2.15 124 2.18 119 2.22  43 3.43  31 3.45
                            47 3.46  27 3.47  34 3.53  44 3.68
  40  0.858  0.662  0.320- 133 2.13 146 2.15 125 2.19 137 2.19 120 2.20 128 2.31 109 2.32  48 3.46
                            49 3.52  32 3.52  44 3.54  28 3.58  35 3.59  41 3.59
  41  0.027  0.888  0.324- 110 2.05 137 2.15 138 2.15 129 2.16 130 2.20 125 2.30  37 3.45  32 3.46
                            33 3.47  46 3.50  40 3.59
  42  0.275  0.388  0.325- 111 2.06 139 2.13 126 2.14 131 2.24 134 2.25 122 2.29  38 3.44  47 3.48
                            34 3.49  29 3.50  37 3.58
  43  0.524  0.887  0.325- 112 2.06 140 2.14 127 2.14 132 2.18 135 2.27 123 2.30  39 3.43  35 3.43
                            30 3.50  48 3.56  38 3.59
  44  0.783  0.381  0.333- 141 2.11 147 2.11 133 2.15 113 2.22 124 2.24 128 2.25 136 2.65  49 3.21
                            36 3.41  45 3.44  40 3.54  31 3.55  39 3.68
  45  0.011  0.406  0.336- 142 2.02 114 2.07 133 2.16 141 2.24 121 2.29 134 2.29  33 3.23  44 3.44
                            37 3.51  36 3.76
  46  0.258  0.906  0.336- 143 2.02 115 2.07 130 2.15 138 2.26 118 2.29 135 2.32  34 3.22  41 3.50
                            38 3.53  33 3.71
  47  0.505  0.399  0.333- 116 2.07 136 2.13 131 2.17 144 2.20 119 2.21 139 2.23  35 3.43  39 3.46
                            42 3.48  34 3.64  49 3.86
  48  0.759  0.906  0.337- 145 2.01 117 2.06 132 2.18 137 2.22 120 2.33 140 2.37  36 3.22  40 3.46
                            43 3.56  35 3.71
  49  0.698  0.550  0.416- 147 1.92 154 2.06 144 2.09 146 2.12 128 2.20 158 2.47 156 2.81  35 3.20
                            44 3.21  40 3.52  47 3.86
  50  0.024  0.173  0.000-  16 2.10   1 2.18
  51  0.274  0.673  0.000-  13 2.10   2 2.18
  52  0.524  0.173  0.000-  14 2.10   3 2.18
  53  0.774  0.673  0.000-  15 2.10   4 2.18
  54  0.215  0.432  0.016-  13 2.19   6 2.22   1 2.30
  55  0.465  0.932  0.016-  14 2.19   7 2.22   2 2.30
  56  0.715  0.432  0.016-  15 2.19   8 2.22   3 2.30
  57  0.965  0.932  0.016-  16 2.19   5 2.22   4 2.30
  58  0.207  0.891  0.025-   5 2.19   2 2.26   9 2.30
  59  0.457  0.391  0.025-   6 2.19   3 2.26  10 2.30
  60  0.707  0.891  0.025-   7 2.19   4 2.26  11 2.30
  61  0.957  0.391  0.025-   8 2.19   1 2.26  12 2.30
  62  0.197  0.226  0.044-   9 2.10   1 2.10   6 2.18
  63  0.447  0.726  0.044-  10 2.10   2 2.10   7 2.18
  64  0.697  0.226  0.044-  11 2.10   3 2.10   8 2.18
  65  0.947  0.726  0.044-  12 2.10   4 2.10   5 2.18
  66  0.111  0.675  0.062-   5 2.10  13 2.10  12 2.18
  67  0.361  0.175  0.062-   6 2.10  14 2.10   9 2.18
  68  0.611  0.675  0.062-   7 2.10  15 2.10  10 2.18
  69  0.861  0.175  0.062-   8 2.10  16 2.10  11 2.18
  70  0.101  0.010  0.081-  17 2.19   9 2.19  16 2.26   5 2.30
  71  0.351  0.510  0.081-  18 2.19  10 2.19  13 2.26   6 2.30
  72  0.601  0.010  0.081-  11 2.19  19 2.19  14 2.26   7 2.30
  73  0.851  0.510  0.081-  12 2.19  20 2.24  15 2.26   8 2.30
  74  0.093  0.470  0.090-   1 2.19  12 2.22  21 2.24  13 2.30
  75  0.343  0.970  0.090-   2 2.19   9 2.22  22 2.23  14 2.30
  76  0.593  0.470  0.090-   3 2.19  23 2.22  10 2.22  15 2.30
  77  0.843  0.970  0.090-   4 2.19  11 2.22  24 2.25  16 2.30
  78  0.034  0.229  0.106-   1 2.10  25 2.10  16 2.18
  79  0.284  0.729  0.106-   2 2.10  26 2.10  13 2.18
  80  0.534  0.229  0.106-  27 2.09   3 2.10  14 2.18
  81  0.784  0.729  0.106-  28 2.08   4 2.10  15 2.18
  82  0.045  0.833  0.134-   5 2.07  32 2.14  17 2.16
  83  0.296  0.334  0.133-   6 2.06  29 2.10  18 2.16
  84  0.546  0.834  0.133-   7 2.06  30 2.09  19 2.18
  85  0.795  0.333  0.134-   8 2.08  31 2.11  20 2.18
  86  0.231  0.093  0.146-   9 2.16  29 2.23  22 2.27  17 2.31
  87  0.481  0.593  0.147-  10 2.17  30 2.22  23 2.29  18 2.30
  88  0.732  0.094  0.147-  11 2.18  24 2.27  19 2.28  31 2.29
  89  0.982  0.593  0.147-  12 2.18  32 2.22  21 2.27  20 2.32
  90  0.225  0.552  0.160-  21 2.18  18 2.23  13 2.26  26 2.29
  91  0.476  0.051  0.161-  22 2.19  19 2.23  14 2.27  27 2.28
  92  0.725  0.552  0.161-  23 2.18  20 2.23  15 2.26  28 2.30
  93  0.975  0.052  0.161-  24 2.18  17 2.23  16 2.26  25 2.29
  94  0.215  0.890  0.181-  17 2.09  26 2.10  22 2.17
  95  0.464  0.389  0.180-  18 2.09  27 2.11  23 2.17
  96  0.715  0.889  0.181-  19 2.09  28 2.11  24 2.18
  97  0.965  0.390  0.182-  20 2.10  25 2.10  21 2.17
  98  0.130  0.335  0.193-  29 2.10  21 2.11  25 2.19
  99  0.379  0.835  0.193-  30 2.08  22 2.11  26 2.20
 100  0.628  0.334  0.194-  23 2.08  31 2.12  27 2.19
 101  0.879  0.836  0.194-  24 2.10  32 2.11  28 2.16
 102  0.117  0.671  0.215-  26 2.18  32 2.21  21 2.29  33 2.42
 103  0.367  0.169  0.213-  27 2.19  29 2.21  22 2.25  34 2.43
 104  0.618  0.671  0.213-  35 2.19  28 2.23  30 2.25  23 2.31
 105  0.868  0.169  0.216-  25 2.21  31 2.22  24 2.28  36 2.38
 106  0.115  0.130  0.224-  37 2.16  17 2.19  29 2.28  25 2.29
 107  0.363  0.631  0.224-  38 2.16  18 2.19  26 2.28  30 2.30
 108  0.615  0.131  0.225-  39 2.15  19 2.20  27 2.30  31 2.31
 109  0.864  0.631  0.225-  20 2.20  28 2.24  32 2.26  40 2.32
 110  0.047  0.893  0.240-  41 2.05  17 2.13  32 2.19
 111  0.297  0.395  0.241-  42 2.06  18 2.13  29 2.21
 112  0.547  0.893  0.240-  43 2.06  19 2.14  30 2.20
 113  0.797  0.393  0.241-  20 2.11  31 2.12  44 2.22
 114  0.069  0.492  0.269-  45 2.07  21 2.09  33 2.21
 115  0.315  0.992  0.268-  46 2.07  22 2.10  34 2.19
 116  0.560  0.493  0.268-  47 2.07  23 2.11  35 2.19
 117  0.809  0.993  0.268-  48 2.06  24 2.10  36 2.22
 118  0.251  0.750  0.283-  38 2.16  26 2.20  46 2.29  33 2.38
 119  0.496  0.249  0.281-  27 2.17  47 2.21  39 2.22  34 2.36
 120  0.749  0.746  0.283-  40 2.20  28 2.22  35 2.24  48 2.33
 121  0.005  0.251  0.281-  37 2.14  25 2.17  45 2.29  36 2.45
 122  0.245  0.213  0.291-  37 2.16  29 2.19  34 2.24  42 2.29
 123  0.493  0.711  0.290-  38 2.17  35 2.18  30 2.20  43 2.30
 124  0.743  0.215  0.296-  39 2.18  44 2.24  31 2.25  36 2.30
 125  0.995  0.710  0.294-  40 2.19  32 2.22  33 2.23  41 2.30
 126  0.239  0.554  0.329-  42 2.14  38 2.15  33 2.16
 127  0.485  0.052  0.327-  34 2.14  43 2.14  39 2.15
 128  0.729  0.546  0.326-  35 2.19  49 2.20  44 2.25  40 2.31
 129  0.989  0.055  0.328-  36 2.12  41 2.16  37 2.16
 130  0.147  0.003  0.331-  37 2.09  46 2.15  41 2.20
 131  0.397  0.504  0.334-  38 2.10  47 2.17  42 2.24
 132  0.643  0.999  0.335-  39 2.11  43 2.18  48 2.18
 133  0.896  0.499  0.329-  40 2.13  44 2.15  45 2.16
 134  0.138  0.320  0.352-  37 2.17  42 2.25  45 2.29
 135  0.386  0.818  0.351-  38 2.16  43 2.27  46 2.32
 136  0.615  0.309  0.355-  39 2.09  47 2.13  44 2.65
 137  0.890  0.836  0.342-  41 2.15  40 2.19  48 2.22
 138  0.132  0.799  0.356-  41 2.15  33 2.17  46 2.26
 139  0.380  0.298  0.355-  42 2.13  34 2.18  47 2.23
 140  0.627  0.792  0.354-  43 2.14  35 2.14  48 2.37
 141  0.891  0.292  0.356-  44 2.11  36 2.14  45 2.24
 142  0.066  0.542  0.375-  33 2.02  45 2.02
 143  0.316  0.042  0.375-  46 2.02  34 2.03
 144  0.575  0.540  0.376-  49 2.09  47 2.20  35 2.25
 145  0.815  0.041  0.375-  48 2.01  36 2.03
 146  0.803  0.675  0.403- 154 1.17  49 2.12  40 2.15
 147  0.756  0.416  0.417-  49 1.92  44 2.11
 148  0.797  0.831  0.502- 157 1.10
 149  0.569  0.693  0.531- 156 1.10
 150  0.700  0.855  0.463- 157 1.10
 151  0.573  0.574  0.491- 156 1.11
 152  0.568  0.702  0.457- 156 1.10
 153  0.727  0.643  0.529- 158 1.11
 154  0.768  0.691  0.445- 146 1.17  49 2.06
 155  0.694  0.842  0.537- 157 1.10
 156  0.598  0.662  0.493- 152 1.10 149 1.10 151 1.11 158 1.55  49 2.81
 157  0.725  0.810  0.499- 148 1.10 155 1.10 150 1.10 158 1.54
 158  0.701  0.685  0.493- 153 1.11 157 1.54 156 1.55  49 2.47
 
  Warning from LATTYP: Monoclinic adjustement (A1->A3, A2->A1, A3->A2)!
  Warning from LATTYP: Got some problem with cell dimensions!
  Tried to take original basis but could not verify dimensions!
  LATTYP: Found a simple monoclinic cell.
 ALAT       =    18.5584556648
 B/A-ratio  =     1.2917238965
 C/A-ratio  =     1.7011970181
 COS(beta)  =    -0.9496615564
  
  Lattice vectors:
  
 A1 = ( -14.0305058395, -12.1474763861,   0.0000000000)
 A2 = (   0.0000000000,   0.0000000000, -23.9724006653)
 A3 = (  29.1411063110,  12.1474763861,   0.0000000000)


Analysis of symmetry for initial positions (statically):
=====================================================================
 Subroutine PRICEL returns:
 Original cell was already a primitive cell.
 

 Routine SETGRP: Setting up the symmetry group for a 
 simple monoclinic supercell.


 Subroutine GETGRP returns: Found  1 space group operations
 (whereof  1 operations were pure point group operations)
 out of a pool of  4 trial point group operations.


The static configuration has the point symmetry C_1 .


Analysis of symmetry for dynamics (positions and initial velocities):
=====================================================================
 Subroutine PRICEL returns:
 Original cell was already a primitive cell.
 

 Routine SETGRP: Setting up the symmetry group for a 
 simple monoclinic supercell.


 Subroutine GETGRP returns: Found  1 space group operations
 (whereof  1 operations were pure point group operations)
 out of a pool of  4 trial point group operations.


The dynamic configuration has the point symmetry C_1 .


Analysis of constrained symmetry for selective dynamics:
=====================================================================
 Subroutine PRICEL returns:
 Original cell was already a primitive cell.
 

 Routine SETGRP: Setting up the symmetry group for a 
 simple monoclinic supercell.


 Subroutine GETGRP returns: Found  1 space group operations
 (whereof  1 operations were pure point group operations)
 out of a pool of  4 trial point group operations.


The constrained configuration has the point symmetry C_1 .


Analysis of structural, dynamic, and magnetic symmetry:
=====================================================================
 Subroutine PRICEL returns:
 Original cell was already a primitive cell.
 

 Routine SETGRP: Setting up the symmetry group for a 
 simple monoclinic supercell.


 Subroutine GETGRP returns: Found  1 space group operations
 (whereof  1 operations were pure point group operations)
 out of a pool of  4 trial point group operations.


The magnetic configuration has the point symmetry C_1 .


 Subroutine INISYM returns: Found  1 space group operations
 (whereof  1 operations are pure point group operations),
 and found     1 'primitive' translations

 
 
 KPOINTS: Monkhorst Pack                          

Automatic generation of k-mesh.
Space group operators:
 irot       det(A)        alpha          n_x          n_y          n_z        tau_x        tau_y        tau_z
    1     1.000000     0.000001     1.000000     0.000000     0.000000     0.000000     0.000000     0.000000
 
 Subroutine IBZKPT returns following result:
 ===========================================
 
 Found      2 irreducible k-points:
 
 Following reciprocal coordinates:
            Coordinates               Weight
  0.250000  0.250000  0.000000      2.000000
 -0.250000  0.250000  0.000000      2.000000
 
 Following cartesian coordinates:
            Coordinates               Weight
  0.016545  0.022051  0.000000      2.000000
 -0.016545  0.019109  0.000000      2.000000
 


--------------------------------------------------------------------------------------------------------




 Dimension of arrays:
   k-points           NKPTS =      2   k-points in BZ     NKDIM =      2   number of bands    NBANDS=    640
   number of dos      NEDOS =    301   number of ions     NIONS =    158
   non local maximal  LDIM  =      6   non local SUM 2l+1 LMDIM =     18
   total plane-waves  NPLWV = 823200
   max r-space proj   IRMAX =   2561   max aug-charges    IRDMAX=   7978
   dimension x,y,z NGX =    84 NGY =   70 NGZ =  140
   dimension x,y,z NGXF=   168 NGYF=  140 NGZF=  280
   support grid    NGXF=   168 NGYF=  140 NGZF=  280
   ions per type =              49  98   8   3
   NGX,Y,Z   is equivalent  to a cutoff of   9.24,  9.54,  9.71 a.u.
   NGXF,Y,Z  is equivalent  to a cutoff of  18.48, 19.08, 19.42 a.u.

 SYSTEM =  mZrO2_n111_dimer                        
 POSCAR =  Zr   O    H    C                        

 Startparameter for this run:
   NWRITE =      2    write-flag & timer
   PREC   = normal    normal or accurate (medium, high low for compatibility)
   ISTART =      1    job   : 0-new  1-cont  2-samecut
   ICHARG =      1    charge: 1-file 2-atom 10-const
   ISPIN  =      2    spin polarized calculation?
   LNONCOLLINEAR =      F non collinear calculations
   LSORBIT =      F    spin-orbit coupling
   INIWAV =      1    electr: 0-lowe 1-rand  2-diag
   LASPH  =      F    aspherical Exc in radial PAW
   METAGGA=      F    non-selfconsistent MetaGGA calc.

 Electronic Relaxation 1
   ENCUT  =  500.0 eV  36.75 Ry    6.06 a.u.  27.55 22.24 43.71*2*pi/ulx,y,z
   ENINI  =  500.0     initial cutoff
   ENAUG  =  644.9 eV  augmentation charge cutoff
   NELM   =    300;   NELMIN=  2; NELMDL=  0     # of ELM steps 
   EDIFF  = 0.1E-05   stopping-criterion for ELM
   LREAL  =      T    real-space projection
   NLSPLINE    = F    spline interpolate recip. space projectors
   LCOMPAT=      F    compatible to vasp.4.4
   GGA_COMPAT  = T    GGA compatible to vasp.4.4-vasp.4.6
   LMAXPAW     = -100 max onsite density
   LMAXMIX     =    2 max onsite mixed and CHGCAR
   VOSKOWN=      0    Vosko Wilk Nusair interpolation
   ROPT   =   -0.00050  -0.00050  -0.00050  -0.00050
 Ionic relaxation
   EDIFFG = -.5E-01   stopping-criterion for IOM
   NSW    =      0    number of steps for IOM
   NBLOCK =      1;   KBLOCK =      1    inner block; outer block 
   IBRION =     -1    ionic relax: 0-MD 1-quasi-New 2-CG
   NFREE  =      0    steps in history (QN), initial steepest desc. (CG)
   ISIF   =      2    stress and relaxation
   IWAVPR =     10    prediction:  0-non 1-charg 2-wave 3-comb
   ISYM   =      2    0-nonsym 1-usesym 2-fastsym
   LCORR  =      T    Harris-Foulkes like correction to forces

   POTIM  = 0.0000    time-step for ionic-motion
   TEIN   =    0.0    initial temperature
   TEBEG  =    0.0;   TEEND  =   0.0 temperature during run
   SMASS  =  -3.00    Nose mass-parameter (am)
   estimated Nose-frequenzy (Omega)   =  0.10E-29 period in steps =  0.00 mass=  -0.522E-26a.u.
   SCALEE = 1.0000    scale energy and forces
   NPACO  =    256;   APACO  = 16.0  distance and # of slots for P.C.
   PSTRESS=    0.0 pullay stress

  Mass of Ions in am
   POMASS =  91.22 16.00  1.00 12.01
  Ionic Valenz
   ZVAL   =  12.00  6.00  1.00  4.00
  Atomic Wigner-Seitz radii
   RWIGS  =  -1.00 -1.00 -1.00 -1.00
  virtual crystal weights 
   VCA    =   1.00  1.00  1.00  1.00
   NELECT =    1196.0000    total number of electrons
   NUPDOWN=      -1.0000    fix difference up-down

 DOS related values:
   EMIN   =  10.00;   EMAX   =-10.00  energy-range for DOS
   EFERMI =   0.00
   ISMEAR =     0;   SIGMA  =   0.05  broadening in eV -4-tet -1-fermi 0-gaus

 Electronic relaxation 2 (details)
   IALGO  =     38    algorithm
   LDIAG  =      T    sub-space diagonalisation (order eigenvalues)
   LSUBROT=      F    optimize rotation matrix (better conditioning)
   TURBO    =      0    0=normal 1=particle mesh
   IRESTART =      0    0=no restart 2=restart with 2 vectors
   NREBOOT  =      0    no. of reboots
   NMIN     =      0    reboot dimension
   EREF     =   0.00    reference energy to select bands
   IMIX   =      4    mixing-type and parameters
     AMIX     =   0.40;   BMIX     =  1.00
     AMIX_MAG =   1.60;   BMIX_MAG =  1.00
     AMIN     =   0.10
     WC   =   100.;   INIMIX=   1;  MIXPRE=   1;  MAXMIX= -45

 Intra band minimization:
   WEIMIN = 0.0000     energy-eigenvalue tresh-hold
   EBREAK =  0.39E-09  absolut break condition
   DEPER  =   0.30     relativ break condition  

   TIME   =   0.40     timestep for ELM

  volume/ion in A,a.u.               =      27.85       187.94
  Fermi-wavevector in a.u.,A,eV,Ry     =   1.060455  2.003969 15.300624  1.124564
  Thomas-Fermi vector in A             =   2.195836
 
 Write flags
   LWAVE        =      T    write WAVECAR
   LDOWNSAMPLE  =      F    k-point downsampling of WAVECAR
   LCHARG       =      T    write CHGCAR
   LVTOT        =      F    write LOCPOT, total local potential
   LVHAR        =      F    write LOCPOT, Hartree potential only
   LELF         =      F    write electronic localiz. function (ELF)
   LORBIT       =      0    0 simple, 1 ext, 2 COOP (PROOUT), +10 PAW based schemes


 Dipole corrections
   LMONO  =      F    monopole corrections only (constant potential shift)
   LDIPOL =      F    correct potential (dipole corrections)
   IDIPOL =      3    1-x, 2-y, 3-z, 4-all directions 
   EPSILON=  1.0000000 bulk dielectric constant

 LDA+U is selected, type is set to LDAUTYPE =  2
   angular momentum for each species LDAUL =     2   -1   -1   -1
   U (eV)           for each species LDAUU =   4.0  0.0  0.0  0.0
   J (eV)           for each species LDAUJ =   0.0  0.0  0.0  0.0
 Exchange correlation treatment:
   GGA     =    --    GGA type
   LEXCH   =     8    internal setting for exchange type
   VOSKOWN=      0    Vosko Wilk Nusair interpolation
   LHFCALC =     F    Hartree Fock is set to
   LHFONE  =     F    Hartree Fock one center treatment
   AEXX    =    0.0000 exact exchange contribution

 Linear response parameters
   LEPSILON=     F    determine dielectric tensor
   LRPA    =     F    only Hartree local field effects (RPA)
   LNABLA  =     F    use nabla operator in PAW spheres
   LVEL    =     F    velocity operator in full k-point grid
   LINTERFAST=   F  fast interpolation
   KINTER  =     0    interpolate to denser k-point grid
   CSHIFT  =0.1000    complex shift for real part using Kramers Kronig
   OMEGAMAX=  -1.0    maximum frequency
   DEG_THRESHOLD= 0.2000000E-02 threshold for treating states as degnerate
   RTIME   =   -0.100 relaxation time in fs
  (WPLASMAI=    0.000 imaginary part of plasma frequency in eV, 0.658/RTIME)
   DFIELD  = 0.0000000 0.0000000 0.0000000 field for delta impulse in time
 
 Orbital magnetization related:
   ORBITALMAG=     F  switch on orbital magnetization
   LCHIMAG   =     F  perturbation theory with respect to B field
   DQ        =  0.001000  dq finite difference perturbation B field
   LLRAUG    =     F  two centre corrections for induced B field



--------------------------------------------------------------------------------------------------------


 Static calculation
 charge density and potential will be updated during run
 spin polarized calculation
 Variant of blocked Davidson
 Davidson routine will perform the subspace rotation
 perform sub-space diagonalisation
    after iterative eigenvector-optimisation
 modified Broyden-mixing scheme, WC =      100.0
 initial mixing is a Kerker type mixing with AMIX =  0.4000 and BMIX =      1.0000
 Hartree-type preconditioning will be used
 using additional bands           42
 real space projection scheme for non local part
 use partial core corrections
 calculate Harris-corrections to forces 
   (improved forces if not selfconsistent)
 use gradient corrections 
 use of overlap-Matrix (Vanderbilt PP)
 Gauss-broadening in eV      SIGMA  =   0.05


--------------------------------------------------------------------------------------------------------


  energy-cutoff  :      500.00
  volume of cell :     4400.27
      direct lattice vectors                 reciprocal lattice vectors
    15.110600471  0.000000000  0.000000000     0.066178707  0.005884289  0.000000000
    -1.080094632 12.147476386  0.000000000     0.000000000  0.082321625  0.000000000
     0.000000000  0.000000000 23.972400665     0.000000000  0.000000000  0.041714637

  length of vectors
    15.110600471 12.195400238 23.972400665     0.066439793  0.082321625  0.041714637


 
 old parameters found on file WAVECAR:
  energy-cutoff  :      500.00
  volume of cell :     4400.27
      direct lattice vectors                 reciprocal lattice vectors
    15.110600471  0.000000000  0.000000000     0.066178707  0.005884289  0.000000000
    -1.080094632 12.147476386  0.000000000     0.000000000  0.082321625  0.000000000
     0.000000000  0.000000000 23.972400665     0.000000000  0.000000000  0.041714637

  length of vectors

 
 k-points in units of 2pi/SCALE and weight: Monkhorst Pack                          
   0.01654468  0.02205148  0.00000000       0.500
  -0.01654468  0.01910933  0.00000000       0.500
 
 k-points in reciprocal lattice and weights: Monkhorst Pack                          
   0.25000000  0.25000000  0.00000000       0.500
  -0.25000000  0.25000000  0.00000000       0.500
 
 position of ions in fractional coordinates (direct lattice) 
   0.08848000  0.32082999  0.03824000
   0.33847998  0.82083000  0.03824000
   0.58847999  0.32082999  0.03824000
   0.83848001  0.82083000  0.03824000
   0.07020001  0.83354995  0.04873000
   0.32019998  0.33355000  0.04873000
   0.57020004  0.83354995  0.04873000
   0.82020001  0.33355000  0.04873000
   0.23783000  0.06778000  0.05703000
   0.48783004  0.56778001  0.05703000
   0.73783001  0.06778000  0.05703000
   0.98782997  0.56778001  0.05703000
   0.21954999  0.58051001  0.06752000
   0.46955000  0.08051000  0.06752000
   0.71954999  0.58051001  0.06752000
   0.96955000  0.08051000  0.06752000
   0.10551629  0.98231396  0.17085370
   0.35591590  0.48329917  0.17099764
   0.60778482  0.98396930  0.17127824
   0.85541848  0.48253839  0.17328747
   0.08900218  0.49433560  0.18257004
   0.33868477  0.99472646  0.18209769
   0.58878811  0.49194259  0.18158896
   0.83847979  0.99498521  0.18280363
   0.00433470  0.22985767  0.19144796
   0.25262783  0.72954836  0.19128359
   0.50357756  0.22823559  0.19069537
   0.75762443  0.72933579  0.19105190
   0.23920894  0.24145420  0.20057298
   0.48728727  0.74274021  0.19936687
   0.74093026  0.24477187  0.20375036
   0.98830807  0.73962519  0.20264271
   0.12238080  0.64050340  0.31440766
   0.37070732  0.13865329  0.31285620
   0.62119247  0.64676009  0.30344719
   0.87376206  0.13714488  0.31398333
   0.10942541  0.16040270  0.31228313
   0.35753218  0.65905923  0.31242829
   0.60541774  0.15683920  0.31365078
   0.85786202  0.66243121  0.32037346
   0.02676373  0.88841505  0.32425655
   0.27466454  0.38785247  0.32523047
   0.52368016  0.88662490  0.32460943
   0.78273123  0.38050968  0.33324787
   0.01096376  0.40604523  0.33577644
   0.25832971  0.90593245  0.33611735
   0.50548854  0.39854072  0.33309273
   0.75929550  0.90569617  0.33675734
   0.69815989  0.55006320  0.41592638
   0.02440000  0.17254999  0.00000000
   0.27439999  0.67255002  0.00000000
   0.52439999  0.17254999  0.00000000
   0.77439999  0.67255002  0.00000000
   0.21455000  0.43156997  0.01581000
   0.46455001  0.93156996  0.01581000
   0.71455008  0.43156997  0.01581000
   0.96455004  0.93156996  0.01581000
   0.20673000  0.89092997  0.02490000
   0.45673000  0.39092998  0.02490000
   0.70672997  0.89092997  0.02490000
   0.95673004  0.39092998  0.02490000
   0.19748000  0.22610000  0.04418000
   0.44748002  0.72610003  0.04418000
   0.69748003  0.22610000  0.04418000
   0.94747999  0.72610003  0.04418000
   0.11054000  0.67523994  0.06158000
   0.36054002  0.17523999  0.06158000
   0.61053998  0.67523994  0.06158000
   0.86053999  0.17523999  0.06158000
   0.10129000  0.01041000  0.08086000
   0.35129000  0.51041000  0.08086000
   0.60128997  0.01041000  0.08086000
   0.85128994  0.51041000  0.08086000
   0.09348000  0.46976000  0.08995000
   0.34348000  0.96975995  0.08995000
   0.59348001  0.46976000  0.08995000
   0.84347996  0.96975995  0.08995000
   0.03362000  0.22878000  0.10576000
   0.28361999  0.72877998  0.10576000
   0.53361997  0.22878000  0.10576000
   0.78362002  0.72877998  0.10576000
   0.04483124  0.83264884  0.13365995
   0.29572616  0.33367226  0.13339771
   0.54601584  0.83399282  0.13328587
   0.79544381  0.33255901  0.13404339
   0.23133612  0.09313932  0.14608426
   0.48133763  0.59330639  0.14650073
   0.73161328  0.09354248  0.14690282
   0.98154311  0.59318598  0.14697312
   0.22520750  0.55200390  0.16042106
   0.47615817  0.05074564  0.16064909
   0.72499542  0.55152322  0.16070082
   0.97503026  0.05216566  0.16071954
   0.21464097  0.88994074  0.18087447
   0.46406900  0.38870251  0.17999907
   0.71487869  0.88850770  0.18086621
   0.96507642  0.38992370  0.18158065
   0.12959249  0.33455750  0.19253373
   0.37853819  0.83487587  0.19324861
   0.62797366  0.33442276  0.19432232
   0.87938468  0.83592415  0.19411009
   0.11728983  0.67072659  0.21474804
   0.36668475  0.16883724  0.21265417
   0.61786749  0.67055981  0.21306451
   0.86763491  0.16934464  0.21623908
   0.11529794  0.12975038  0.22375867
   0.36325495  0.63052183  0.22376647
   0.61501159  0.13058396  0.22508199
   0.86396356  0.63140039  0.22520751
   0.04711896  0.89276783  0.23980644
   0.29672175  0.39533156  0.24050920
   0.54724893  0.89301787  0.23995078
   0.79672338  0.39280092  0.24132469
   0.06896715  0.49184505  0.26882947
   0.31458888  0.99161023  0.26827944
   0.55999378  0.49305230  0.26775182
   0.80938504  0.99309295  0.26847747
   0.25088466  0.75001065  0.28251554
   0.49639733  0.24873080  0.28060825
   0.74880438  0.74559628  0.28313733
   0.00513761  0.25098378  0.28134379
   0.24541149  0.21335341  0.29077750
   0.49334070  0.71147260  0.28959084
   0.74342915  0.21476062  0.29632687
   0.99459746  0.71013059  0.29377218
   0.23881845  0.55385323  0.32920482
   0.48547647  0.05150839  0.32661637
   0.72890231  0.54646701  0.32628625
   0.98949707  0.05510822  0.32828584
   0.14719771  0.00337335  0.33063439
   0.39744124  0.50397679  0.33404444
   0.64261521  0.99928067  0.33474391
   0.89605988  0.49930443  0.32877620
   0.13761140  0.32002479  0.35165477
   0.38591565  0.81819537  0.35140100
   0.61541978  0.30901878  0.35451627
   0.89007626  0.83621516  0.34206564
   0.13227784  0.79906698  0.35636304
   0.37984679  0.29788655  0.35515236
   0.62664496  0.79194518  0.35427133
   0.89085136  0.29220436  0.35579524
   0.06612948  0.54222631  0.37497449
   0.31579580  0.04179149  0.37461024
   0.57475620  0.54035887  0.37627975
   0.81542584  0.04071827  0.37502534
   0.80269115  0.67458903  0.40273249
   0.75603158  0.41574083  0.41737360
   0.79668075  0.83097697  0.50213661
   0.56869929  0.69306006  0.53090594
   0.70021637  0.85504004  0.46327252
   0.57341416  0.57357107  0.49108824
   0.56793365  0.70206595  0.45702484
   0.72730147  0.64312194  0.52926427
   0.76772718  0.69116617  0.44495262
   0.69364667  0.84229163  0.53666022
   0.59842173  0.66209630  0.49257422
   0.72466367  0.80978052  0.49917183
   0.70064297  0.68521591  0.49291353
 
 position of ions in cartesian coordinates  (Angst):
   0.99045921  3.89727473  0.91670460
   4.22806168  9.97101307  0.91670460
   8.54575920  3.89727473  0.91670460
  11.78336239  9.97101307  0.91670460
   0.16045142 10.12552833  1.16817511
   4.47814847  4.05179071  1.16817511
   7.71575212 10.12552833  1.16817511
  12.03344917  4.05179071  1.16817511
   3.52054525  0.82335597  1.36714601
   6.75814868  6.89709425  1.36714601
  11.07584571  0.82335597  1.36714601
  14.31344795  6.89709425  1.36714601
   2.69052649  7.05173159  1.61861647
   7.00822400  0.97799331  1.61861647
  10.24582672  7.05173159  1.61861647
  14.56352424  0.97799331  1.61861647
   0.53342249 11.93263558  4.09577327
   4.85609411  5.87086527  4.09922389
   8.12121366 11.95274378  4.10595063
  12.40469976  5.86162376  4.15411666
   0.81094722  6.00492998  4.37664215
   4.04333156 12.08341620  4.36531881
   8.36559731  5.97586101  4.35312329
  11.59525488 12.08655935  4.38224189
  -0.18276813  2.79219062  4.58946722
   3.02937686  8.86217150  4.58552684
   7.36284335  2.77248644  4.57142582
  10.66040843  8.85958931  4.57997269
   3.35379729  2.93305915  4.80821579
   6.56097358  9.02241916  4.77930249
  10.93152442  2.97336050  4.88438526
  14.13506317  8.98457956  4.85783233
   1.15744306  7.78049989  7.53710629
   5.45185151  1.68428760  7.49991414
   8.68802914  7.85650292  7.27435760
  13.05493989  1.66596420  7.52693428
   1.48023352  1.94848795  7.48617633
   4.69067964  8.00590637  7.48965612
   8.97882441  1.90520047  7.51896211
  12.24732184  8.04686744  7.68012098
  -0.55515637 10.79200081  7.77320799
   3.73142878  4.71142867  7.79655510
   6.95548281 10.77025499  7.78166740
  11.41655248  4.62223229  7.98875148
  -0.27289822  4.93242486  8.04936725
   2.92502424 11.00479310  8.05753971
   7.20777375  4.84126394  7.98503243
  10.49517334 11.00192285  8.07288198
   9.95549485  6.68187976  9.97075376
   0.18232835  2.09604693  0.00000000
   3.41993094  8.16978550  0.00000000
   7.73762846  2.09604693  0.00000000
  10.97523117  8.16978550  0.00000000
   2.77584291  5.24248600  0.37900365
   6.01344586 11.31622410  0.37900365
  10.33114434  5.24248600  0.37900365
  13.56874656 11.31622410  0.37900365
   2.16152573 10.82255077  0.59691280
   6.47922326  4.74881268  0.59691280
   9.71682548 10.82255077  0.59691280
  14.03452396  4.74881268  0.59691280
   2.73983193  2.74654436  1.05910064
   5.97743511  8.82028293  1.05910064
  10.29513263  2.74654436  1.05910064
  13.53273487  8.82028293  1.05910064
   0.94100273  8.20246124  1.47622036
   5.25870037  2.12872362  1.47622036
   8.49630260  8.20246124  1.47622036
  12.81400013  2.12872362  1.47622036
   1.51930892  0.12645522  1.93840825
   4.75691175  6.20019341  1.93840825
   9.07460880  0.12645522  1.93840825
  12.31221104  6.20019341  1.93840825
   0.90515363  5.70639848  2.15631746
   4.14275646 11.78013610  2.15631746
   8.46045399  5.70639848  2.15631746
  11.69805622 11.78013610  2.15631746
   0.26091433  2.77909971  2.53532100
   3.49851704  8.85283756  2.53532100
   7.81621408  2.77909971  2.53532100
  11.05381775  8.85283756  2.53532100
  -0.22191264 10.11458216  3.20414999
   4.10820218  4.05327584  3.19786343
   7.34983603 10.13090809  3.19518222
  11.66043839  4.03975274  3.21334180
   3.39502848  1.13140769  3.50199047
   6.63247350  7.20717538  3.51197430
  10.95408128  1.13630501  3.52161327
  14.19100882  7.20571268  3.52329860
   2.80680412  6.70545437  3.84567784
   7.14022575  0.61643145  3.85114436
  10.35941882  6.69961523  3.85238440
  14.67694878  0.63368115  3.85283324
   2.28213370 10.81053409  4.33599533
   6.59252579  4.72175460  4.31500977
   9.84257390 10.79312627  4.33579728
  14.16172974  4.73658897  4.35292402
   1.59686666  4.06402928  4.61549561
   4.81819442 10.14163486  4.63263315
   9.12785084  4.06239259  4.65837250
  12.38515333 10.15436885  4.65328474
   1.04787164  8.14763539  5.14802615
   5.35846658  2.05094643  5.09783103
   8.61208067  8.14560951  5.10766791
  12.92757623  2.05711004  5.18376997
   1.60207848  1.57613963  5.36403249
   4.80797722  7.65924901  5.36421940
   9.15215140  1.58626559  5.39575558
  12.37303600  7.66992131  5.39876455
  -0.25227797 10.84487613  5.74873601
   4.05664835  4.80228081  5.76558284
   7.30471615 10.84791350  5.75219624
  11.61470656  4.77153988  5.78513212
   0.51089584  5.97467607  6.44448784
   3.68259404 12.04556186  6.43130232
   7.92929915  5.98934118  6.41865397
  11.15765955 12.06357319  6.43604945
   2.98093542  9.11073664  6.77257575
   7.23220896  3.02145150  6.72685331
  10.50956936  9.05711315  6.78748152
  -0.19345381  3.04881953  6.74448610
   3.47787307  2.59170556  6.97063471
   6.68621647  8.64259657  6.94218770
  11.00169902  2.60879954  7.10366654
  14.26195662  8.62629460  7.04242434
   3.01047623  6.72791899  7.89182982
   7.28020706  0.62569697  7.82977856
  10.42391544  6.63819511  7.82186483
  14.89237283  0.66942584  7.86979981
   2.22060232  0.04097769  7.92610014
   5.46123319  6.12204618  8.00784704
   8.63098406 12.13873836  8.02461518
  13.00070688  6.06528873  7.88155480
   1.73373376  3.88749357  8.43000915
   4.94768878  9.93900898  8.42392565
   8.96559290  3.75379829  8.49860607
  12.54639531 10.15790394  8.20013457
   1.13572960  9.70664721  8.54287764
   5.41796746  3.61856980  8.51385463
   8.61360587  9.62013537  8.49273425
  13.14569067  3.54954557  8.52926608
   0.41360044  6.58668135  8.98903870
   4.72672544  0.50766117  8.98030684
   8.10127253  6.56399662  9.02032902
  12.27759454  0.49462418  8.99025782
  11.40052529  8.19455426  9.65446472
  10.97505169  5.05020188 10.00544722
  11.14079079 10.09427315 12.03741994
   7.84481725  8.41893075 12.72708982
   9.65716570 10.38657868 11.10575446
   8.04512122  6.96744101 11.77256400
   7.82352086  8.52832953 10.95598267
  10.29532934  7.81230854 12.68773503
  10.85429389  8.39592469 10.66658249
   9.57166299 10.23171768 12.86503377
   8.32738506  8.04279922 11.80818659
  10.07546358  9.83678980 11.96634718
   9.84703798  8.32364408 11.81632073
 


--------------------------------------------------------------------------------------------------------


 k-point  1 :   0.2500 0.2500 0.0000  plane waves:  111683
 k-point  2 :  -0.2500 0.2500 0.0000  plane waves:  111725

 maximum and minimum number of plane-waves per node :     18644    18587

 maximum number of plane-waves:    111725
 maximum index in each direction: 
   IXMAX=   27   IYMAX=   21   IZMAX=   43
   IXMIN=  -27   IYMIN=  -22   IZMIN=  -43


 real space projection operators:
  total allocation   :      22021.35 KBytes
  max/ min on nodes  :       3674.79       3663.40


 parallel 3D FFT for wavefunctions:
    minimum data exchange during FFTs selected (reduces bandwidth)
 parallel 3D FFT for charge:
    minimum data exchange during FFTs selected (reduces bandwidth)


 total amount of memory used by VASP MPI-rank0   174542. kBytes
=======================================================================

   base      :      30000. kBytes
   nonlr-proj:      11326. kBytes
   fftplans  :       9317. kBytes
   grid      :      26149. kBytes
   one-center:        839. kBytes
   wavefun   :      96911. kBytes
 
     INWAV:  cpu time    8.6025: real time    8.6472
 Broyden mixing: mesh for mixing (old mesh)
   NGX = 55   NGY = 45   NGZ = 87
  (NGX  =168   NGY  =140   NGZ  =280)
  gives a total of 215325 points

 initial charge density was supplied:
 number of electron    1195.9999953 magnetization       0.0000000
 keeping initial charge density in first step


--------------------------------------------------------------------------------------------------------


 Maximum index for non-local projection operator          432
 Maximum index for augmentation-charges          476 (set IRDMAX)


--------------------------------------------------------------------------------------------------------


 First call to EWALD:  gamma=   0.108
 Maximum number of real-space cells 3x 4x 2
 Maximum number of reciprocal cells 3x 2x 4

    FEWALD:  cpu time    0.0054: real time    0.0054


--------------------------------------- Iteration      1(   1)  ---------------------------------------


    POTLOK:  cpu time    0.2230: real time    0.2241
    SETDIJ:  cpu time    0.0218: real time    0.0219
     EDDAV:  cpu time   27.8028: real time   27.8810
       DOS:  cpu time    0.0010: real time    0.0007
    CHARGE:  cpu time    1.1832: real time    1.1865
    MIXING:  cpu time    0.0066: real time    0.0067
    --------------------------------------------
      LOOP:  cpu time   29.2384: real time   29.3209

 eigenvalue-minimisations  :  6304
 total energy-change (2. order) :-0.1328175E+04  (-0.1288091E+00)
 number of electron    1195.9999952 magnetization       0.0000000
 augmentation part       73.6240789 magnetization      -0.0000000

 Broyden mixing:
  rms(total) = 0.94567E-01    rms(broyden)= 0.94489E-01
  rms(prec ) = 0.95750E-01
  weight for this iteration     100.00

 Free energy of the ion-electron system (eV)
  ---------------------------------------------------
  alpha Z        PSCENC =      2113.54737298
  Ewald energy   TEWEN  =    394756.12573209
  -Hartree energ DENC   =   -491259.63425492
  -exchange      EXHF   =         0.00000000
  -V(xc)+E(xc)   XCENC  =      5279.68244344
  PAW double counting   =    129137.06629820  -128457.24652166
  entropy T*S    EENTRO =        -0.00000000
  eigenvalues    EBANDS =    -18736.61883761
  atomic energy  EATOM  =    105838.90241102
  Solvation  Ediel_sol  =         0.00000000
  ---------------------------------------------------
  free energy    TOTEN  =     -1328.17535647 eV

  energy without entropy =    -1328.17535647  energy(sigma->0) =    -1328.17535647


--------------------------------------------------------------------------------------------------------




--------------------------------------- Iteration      1(   2)  ---------------------------------------


    POTLOK:  cpu time    0.2122: real time    0.2154
    SETDIJ:  cpu time    0.0212: real time    0.0213
     EDDAV:  cpu time   26.9062: real time   26.9758
       DOS:  cpu time    0.0006: real time    0.0006
    CHARGE:  cpu time    1.2024: real time    1.2113
    MIXING:  cpu time    0.0116: real time    0.0116
    --------------------------------------------
      LOOP:  cpu time   28.3542: real time   28.4360

 eigenvalue-minimisations  :  6080
 total energy-change (2. order) :-0.1730323E+01  (-0.1148716E+00)
 number of electron    1195.9999953 magnetization      -0.0000000
 augmentation part       73.5486465 magnetization      -0.0000000

 Broyden mixing:
  rms(total) = 0.40322E-01    rms(broyden)= 0.40207E-01
  rms(prec ) = 0.42365E-01
  weight for this iteration     100.00

 eigenvalues of (default mixing * dielectric matrix)
  average eigenvalue GAMMA=   0.7369
  0.7369

 Free energy of the ion-electron system (eV)
  ---------------------------------------------------
  alpha Z        PSCENC =      2113.54737298
  Ewald energy   TEWEN  =    394756.12573209
  -Hartree energ DENC   =   -491261.60908158
  -exchange      EXHF   =         0.00000000
  -V(xc)+E(xc)   XCENC  =      5279.77780281
  PAW double counting   =    128993.98481384  -128313.12100556
  entropy T*S    EENTRO =        -0.00000000
  eigenvalues    EBANDS =    -18737.51372490
  atomic energy  EATOM  =    105838.90241102
  Solvation  Ediel_sol  =         0.00000000
  ---------------------------------------------------
  free energy    TOTEN  =     -1329.90567932 eV

  energy without entropy =    -1329.90567932  energy(sigma->0) =    -1329.90567932


--------------------------------------------------------------------------------------------------------




--------------------------------------- Iteration      1(   3)  ---------------------------------------


    POTLOK:  cpu time    0.2463: real time    0.2470
    SETDIJ:  cpu time    0.0233: real time    0.0233
     EDDAV:  cpu time   29.2981: real time   29.3741
       DOS:  cpu time    0.0006: real time    0.0006
    CHARGE:  cpu time    1.1815: real time    1.1898
    MIXING:  cpu time    0.0063: real time    0.0063
    --------------------------------------------
      LOOP:  cpu time   30.7559: real time   30.8411

 eigenvalue-minimisations  :  6720
 total energy-change (2. order) :-0.9692474E-02  (-0.4038088E-02)
 number of electron    1195.9999953 magnetization      -0.0000000
 augmentation part       73.5798394 magnetization       0.0000000

 Broyden mixing:
  rms(total) = 0.27400E-01    rms(broyden)= 0.27382E-01
  rms(prec ) = 0.27796E-01
  weight for this iteration     100.00

 eigenvalues of (default mixing * dielectric matrix)
  average eigenvalue GAMMA=   0.6935
  0.6935  0.6935

 Free energy of the ion-electron system (eV)
  ---------------------------------------------------
  alpha Z        PSCENC =      2113.54737298
  Ewald energy   TEWEN  =    394756.12573209
  -Hartree energ DENC   =   -491259.14652405
  -exchange      EXHF   =         0.00000000
  -V(xc)+E(xc)   XCENC  =      5279.58567351
  PAW double counting   =    129021.74934892  -128340.15160990
  entropy T*S    EENTRO =        -0.00000000
  eigenvalues    EBANDS =    -18740.52777636
  atomic energy  EATOM  =    105838.90241102
  Solvation  Ediel_sol  =         0.00000000
  ---------------------------------------------------
  free energy    TOTEN  =     -1329.91537179 eV

  energy without entropy =    -1329.91537179  energy(sigma->0) =    -1329.91537179


--------------------------------------------------------------------------------------------------------




--------------------------------------- Iteration      1(   4)  ---------------------------------------


    POTLOK:  cpu time    0.2118: real time    0.2138
    SETDIJ:  cpu time    0.0215: real time    0.0215
     EDDAV:  cpu time   25.2433: real time   25.3070
       DOS:  cpu time    0.0006: real time    0.0006
    CHARGE:  cpu time    1.1741: real time    1.1769
    MIXING:  cpu time    0.0066: real time    0.0066
    --------------------------------------------
      LOOP:  cpu time   26.6578: real time   26.7264

 eigenvalue-minimisations  :  5600
 total energy-change (2. order) :-0.4356455E-04  (-0.2023708E-03)
 number of electron    1195.9999953 magnetization       0.0000000
 augmentation part       73.5756345 magnetization       0.0000000

 Broyden mixing:
  rms(total) = 0.22221E-01    rms(broyden)= 0.22219E-01
  rms(prec ) = 0.22509E-01
  weight for this iteration     100.00

 eigenvalues of (default mixing * dielectric matrix)
  average eigenvalue GAMMA=   0.6862
  0.7722  0.7722  0.5142

 Free energy of the ion-electron system (eV)
  ---------------------------------------------------
  alpha Z        PSCENC =      2113.54737298
  Ewald energy   TEWEN  =    394756.12573209
  -Hartree energ DENC   =   -491259.82824865
  -exchange      EXHF   =         0.00000000
  -V(xc)+E(xc)   XCENC  =      5279.65114009
  PAW double counting   =    129050.66670617  -128369.01805555
  entropy T*S    EENTRO =        -0.00000000
  eigenvalues    EBANDS =    -18739.96247351
  atomic energy  EATOM  =    105838.90241102
  Solvation  Ediel_sol  =         0.00000000
  ---------------------------------------------------
  free energy    TOTEN  =     -1329.91541536 eV

  energy without entropy =    -1329.91541536  energy(sigma->0) =    -1329.91541536


--------------------------------------------------------------------------------------------------------




--------------------------------------- Iteration      1(   5)  ---------------------------------------


    POTLOK:  cpu time    0.2121: real time    0.2143
    SETDIJ:  cpu time    0.0214: real time    0.0214
     EDDAV:  cpu time   29.1055: real time   29.1846
       DOS:  cpu time    0.0005: real time    0.0005
    CHARGE:  cpu time    1.1839: real time    1.1868
    MIXING:  cpu time    0.0070: real time    0.0070
    --------------------------------------------
      LOOP:  cpu time   30.5303: real time   30.6144

 eigenvalue-minimisations  :  6688
 total energy-change (2. order) :-0.9942945E-05  (-0.1945867E-04)
 number of electron    1195.9999953 magnetization      -0.0000000
 augmentation part       73.5814380 magnetization       0.0000000

 Broyden mixing:
  rms(total) = 0.18710E-01    rms(broyden)= 0.18710E-01
  rms(prec ) = 0.18955E-01
  weight for this iteration     100.00

 eigenvalues of (default mixing * dielectric matrix)
  average eigenvalue GAMMA=   0.7208
  0.8982  0.8982  0.5434  0.5434

 Free energy of the ion-electron system (eV)
  ---------------------------------------------------
  alpha Z        PSCENC =      2113.54737298
  Ewald energy   TEWEN  =    394756.12573209
  -Hartree energ DENC   =   -491259.86299260
  -exchange      EXHF   =         0.00000000
  -V(xc)+E(xc)   XCENC  =      5279.65511135
  PAW double counting   =    129068.29625562  -128386.61196115
  entropy T*S    EENTRO =        -0.00000000
  eigenvalues    EBANDS =    -18739.96735461
  atomic energy  EATOM  =    105838.90241102
  Solvation  Ediel_sol  =         0.00000000
  ---------------------------------------------------
  free energy    TOTEN  =     -1329.91542530 eV

  energy without entropy =    -1329.91542530  energy(sigma->0) =    -1329.91542530


--------------------------------------------------------------------------------------------------------




--------------------------------------- Iteration      1(   6)  ---------------------------------------


    POTLOK:  cpu time    0.2119: real time    0.2136
    SETDIJ:  cpu time    0.0212: real time    0.0212
     EDDAV:  cpu time   28.5609: real time   28.6378
       DOS:  cpu time    0.0006: real time    0.0006
    CHARGE:  cpu time    1.1842: real time    1.1871
    MIXING:  cpu time    0.0071: real time    0.0071
    --------------------------------------------
      LOOP:  cpu time   29.9859: real time   30.0674

 eigenvalue-minimisations  :  6528
 total energy-change (2. order) :-0.1253316E-04  (-0.2117816E-05)
 number of electron    1195.9999953 magnetization      -0.0000000
 augmentation part       73.5827981 magnetization       0.0000000

 Broyden mixing:
  rms(total) = 0.16265E-01    rms(broyden)= 0.16265E-01
  rms(prec ) = 0.16488E-01
  weight for this iteration     100.00

 eigenvalues of (default mixing * dielectric matrix)
  average eigenvalue GAMMA=   0.8025
  1.1389  1.1389  0.5250  0.6048  0.6048

 Free energy of the ion-electron system (eV)
  ---------------------------------------------------
  alpha Z        PSCENC =      2113.54737298
  Ewald energy   TEWEN  =    394756.12573209
  -Hartree energ DENC   =   -491259.97054257
  -exchange      EXHF   =         0.00000000
  -V(xc)+E(xc)   XCENC  =      5279.66276413
  PAW double counting   =    129081.99753647  -128400.30210431
  entropy T*S    EENTRO =        -0.00000000
  eigenvalues    EBANDS =    -18739.87860764
  atomic energy  EATOM  =    105838.90241102
  Solvation  Ediel_sol  =         0.00000000
  ---------------------------------------------------
  free energy    TOTEN  =     -1329.91543783 eV

  energy without entropy =    -1329.91543783  energy(sigma->0) =    -1329.91543783


--------------------------------------------------------------------------------------------------------




--------------------------------------- Iteration      1(   7)  ---------------------------------------


    POTLOK:  cpu time    0.2114: real time    0.2121
    SETDIJ:  cpu time    0.0213: real time    0.0214
     EDDAV:  cpu time   29.1379: real time   29.2430
       DOS:  cpu time    0.0005: real time    0.0005
    CHARGE:  cpu time    1.1829: real time    1.1859
    MIXING:  cpu time    0.0080: real time    0.0080
    --------------------------------------------
      LOOP:  cpu time   30.5620: real time   30.6708

 eigenvalue-minimisations  :  6656
 total energy-change (2. order) :-0.1037124E-04  (-0.2437097E-05)
 number of electron    1195.9999953 magnetization      -0.0000000
 augmentation part       73.5841360 magnetization       0.0000000

 Broyden mixing:
  rms(total) = 0.12767E-01    rms(broyden)= 0.12767E-01
  rms(prec ) = 0.12941E-01
  weight for this iteration     100.00

 eigenvalues of (default mixing * dielectric matrix)
  average eigenvalue GAMMA=   0.8550
  1.3391  1.3391  0.6799  0.6799  0.5462  0.5462

 Free energy of the ion-electron system (eV)
  ---------------------------------------------------
  alpha Z        PSCENC =      2113.54737298
  Ewald energy   TEWEN  =    394756.12573209
  -Hartree energ DENC   =   -491260.00316678
  -exchange      EXHF   =         0.00000000
  -V(xc)+E(xc)   XCENC  =      5279.66864849
  PAW double counting   =    129100.60727236  -128418.89831869
  entropy T*S    EENTRO =        -0.00000000
  eigenvalues    EBANDS =    -18739.86539968
  atomic energy  EATOM  =    105838.90241102
  Solvation  Ediel_sol  =         0.00000000
  ---------------------------------------------------
  free energy    TOTEN  =     -1329.91544820 eV

  energy without entropy =    -1329.91544820  energy(sigma->0) =    -1329.91544820


--------------------------------------------------------------------------------------------------------




--------------------------------------- Iteration      1(   8)  ---------------------------------------


    POTLOK:  cpu time    0.2101: real time    0.2135
    SETDIJ:  cpu time    0.0214: real time    0.0214
     EDDAV:  cpu time   26.6751: real time   26.7488
       DOS:  cpu time    0.0006: real time    0.0006
    CHARGE:  cpu time    1.1854: real time    1.1883
    MIXING:  cpu time    0.0078: real time    0.0078
    --------------------------------------------
      LOOP:  cpu time   28.1004: real time   28.1804

 eigenvalue-minimisations  :  5952
 total energy-change (2. order) :-0.6313654E-05  (-0.1590312E-05)
 number of electron    1195.9999953 magnetization      -0.0000000
 augmentation part       73.5855749 magnetization       0.0000000

 Broyden mixing:
  rms(total) = 0.10554E-01    rms(broyden)= 0.10554E-01
  rms(prec ) = 0.10690E-01
  weight for this iteration     100.00

 eigenvalues of (default mixing * dielectric matrix)
  average eigenvalue GAMMA=   0.9160
  1.5884  1.5884  0.7669  0.7669  0.5323  0.5845  0.5845

 Free energy of the ion-electron system (eV)
  ---------------------------------------------------
  alpha Z        PSCENC =      2113.54737298
  Ewald energy   TEWEN  =    394756.12573209
  -Hartree energ DENC   =   -491260.02177367
  -exchange      EXHF   =         0.00000000
  -V(xc)+E(xc)   XCENC  =      5279.67165389
  PAW double counting   =    129112.54008897  -128430.82170987
  entropy T*S    EENTRO =        -0.00000000
  eigenvalues    EBANDS =    -18739.85922993
  atomic energy  EATOM  =    105838.90241102
  Solvation  Ediel_sol  =         0.00000000
  ---------------------------------------------------
  free energy    TOTEN  =     -1329.91545452 eV

  energy without entropy =    -1329.91545452  energy(sigma->0) =    -1329.91545452


--------------------------------------------------------------------------------------------------------




--------------------------------------- Iteration      1(   9)  ---------------------------------------


    POTLOK:  cpu time    0.2115: real time    0.2122
    SETDIJ:  cpu time    0.0213: real time    0.0213
     EDDAV:  cpu time   20.1469: real time   20.2029
       DOS:  cpu time    0.0006: real time    0.0005
    CHARGE:  cpu time    1.1856: real time    1.1885
    MIXING:  cpu time    0.0084: real time    0.0084
    --------------------------------------------
      LOOP:  cpu time   21.5743: real time   21.6338

 eigenvalue-minimisations  :  4064
 total energy-change (2. order) :-0.5143578E-05  (-0.4365348E-06)
 number of electron    1195.9999953 magnetization      -0.0000000
 augmentation part       73.5865097 magnetization       0.0000000

 Broyden mixing:
  rms(total) = 0.89672E-02    rms(broyden)= 0.89672E-02
  rms(prec ) = 0.90860E-02
  weight for this iteration     100.00

 eigenvalues of (default mixing * dielectric matrix)
  average eigenvalue GAMMA=   1.0765
  2.1437  2.1437  0.9199  0.9199  0.6637  0.6637  0.5788  0.5788

 Free energy of the ion-electron system (eV)
  ---------------------------------------------------
  alpha Z        PSCENC =      2113.54737298
  Ewald energy   TEWEN  =    394756.12573209
  -Hartree energ DENC   =   -491260.02898937
  -exchange      EXHF   =         0.00000000
  -V(xc)+E(xc)   XCENC  =      5279.67301322
  PAW double counting   =    129121.15672580  -128439.43630951
  entropy T*S    EENTRO =        -0.00000000
  eigenvalues    EBANDS =    -18739.85541589
  atomic energy  EATOM  =    105838.90241102
  Solvation  Ediel_sol  =         0.00000000
  ---------------------------------------------------
  free energy    TOTEN  =     -1329.91545966 eV

  energy without entropy =    -1329.91545966  energy(sigma->0) =    -1329.91545966


--------------------------------------------------------------------------------------------------------




--------------------------------------- Iteration      1(  10)  ---------------------------------------


    POTLOK:  cpu time    0.2123: real time    0.2130
    SETDIJ:  cpu time    0.0213: real time    0.0213
     EDDAV:  cpu time   28.9421: real time   29.0195
       DOS:  cpu time    0.0006: real time    0.0006
    CHARGE:  cpu time    1.1876: real time    1.1904
    MIXING:  cpu time    0.0085: real time    0.0085
    --------------------------------------------
      LOOP:  cpu time   30.3723: real time   30.4533

 eigenvalue-minimisations  :  6624
 total energy-change (2. order) :-0.7262948E-05  (-0.3073052E-05)
 number of electron    1195.9999953 magnetization      -0.0000000
 augmentation part       73.5879914 magnetization       0.0000000

 Broyden mixing:
  rms(total) = 0.47662E-02    rms(broyden)= 0.47661E-02
  rms(prec ) = 0.48331E-02
  weight for this iteration     100.00

 eigenvalues of (default mixing * dielectric matrix)
  average eigenvalue GAMMA=   1.1260
  2.4126  2.4126  1.0671  1.0671  0.6933  0.6933  0.5906  0.5987  0.5987

 Free energy of the ion-electron system (eV)
  ---------------------------------------------------
  alpha Z        PSCENC =      2113.54737298
  Ewald energy   TEWEN  =    394756.12573209
  -Hartree energ DENC   =   -491260.04993814
  -exchange      EXHF   =         0.00000000
  -V(xc)+E(xc)   XCENC  =      5279.67714554
  PAW double counting   =    129143.40341362  -128461.67370548
  entropy T*S    EENTRO =        -0.00000000
  eigenvalues    EBANDS =    -18739.84789856
  atomic energy  EATOM  =    105838.90241102
  Solvation  Ediel_sol  =         0.00000000
  ---------------------------------------------------
  free energy    TOTEN  =     -1329.91546692 eV

  energy without entropy =    -1329.91546692  energy(sigma->0) =    -1329.91546692


--------------------------------------------------------------------------------------------------------




--------------------------------------- Iteration      1(  11)  ---------------------------------------


[...]
   0.390E+02 -.209E+02 -.140E+04   -.356E+02 0.220E+02 0.140E+04   -.339E+01 -.102E+01 -.424E+01   -.387E-03 -.207E-05 -.425E-03
   0.219E+01 -.660E+02 -.138E+04   0.206E+01 0.673E+02 0.138E+04   -.426E+01 -.126E+01 -.425E+01   -.194E-04 0.174E-03 -.587E-03
   -.139E+03 -.792E+01 -.122E+04   0.143E+03 0.106E+02 0.122E+04   -.391E+01 -.269E+01 0.133E+00   0.359E-04 0.346E-03 -.438E-03
   -.374E+02 -.488E+01 -.163E+04   0.377E+02 0.823E+01 0.164E+04   -.377E+00 -.336E+01 -.866E+01   0.319E-03 0.942E-04 -.477E-03
   0.341E+02 -.332E+02 -.161E+04   -.337E+02 0.371E+02 0.161E+04   -.405E+00 -.386E+01 -.843E+01   0.183E-03 0.240E-03 -.305E-03
   0.203E+01 0.848E+02 -.155E+04   0.485E+01 -.806E+02 0.156E+04   -.686E+01 -.428E+01 -.104E+02   0.168E-03 -.129E-03 -.105E-03
   -.101E+03 -.107E+03 -.144E+04   0.101E+03 0.111E+03 0.144E+04   0.601E+00 -.346E+01 -.550E+01   0.247E-03 0.658E-04 -.691E-03
   -.417E+02 0.673E+01 -.167E+04   0.432E+02 -.813E+01 0.168E+04   -.150E+01 0.141E+01 -.111E+02   -.663E-03 0.206E-03 -.234E-03
   0.399E+02 0.464E+02 -.167E+04   -.386E+02 -.485E+02 0.168E+04   -.134E+01 0.214E+01 -.115E+02   -.589E-03 0.494E-04 -.124E-03
   0.718E+02 -.820E+02 -.154E+04   -.688E+02 0.816E+02 0.155E+04   -.295E+01 0.432E+00 -.114E+02   -.208E-03 0.258E-03 -.311E-03
   -.107E+03 0.820E+02 -.162E+04   0.110E+03 -.839E+02 0.163E+04   -.314E+01 0.187E+01 -.116E+02   -.272E-03 0.203E-03 0.164E-03
   -.670E+02 -.374E+02 -.181E+04   0.667E+02 0.411E+02 0.183E+04   0.206E+00 -.374E+01 -.184E+02   -.279E-03 -.293E-03 -.906E-03
   0.189E+02 -.471E+02 -.183E+04   -.186E+02 0.510E+02 0.184E+04   -.264E+00 -.392E+01 -.183E+02   -.142E-03 0.783E-04 -.968E-03
   0.270E+03 0.207E+02 -.159E+04   -.280E+03 -.181E+02 0.159E+04   0.107E+02 -.256E+01 -.609E+01   0.169E-03 -.217E-03 -.296E-03
   -.310E+02 -.918E+02 -.178E+04   0.312E+02 0.964E+02 0.180E+04   -.163E+00 -.457E+01 -.184E+02   0.438E-04 -.129E-03 -.103E-02
   -.229E+03 -.149E+03 -.165E+04   0.242E+03 0.156E+03 0.165E+04   -.137E+02 -.727E+01 0.529E+01   0.459E-03 -.246E-03 -.152E-03
   -.128E+03 0.277E+03 -.179E+04   0.136E+03 -.292E+03 0.180E+04   -.792E+01 0.144E+02 -.125E+02   -.459E-05 0.594E-03 -.426E-03
   -.652E+02 -.371E+02 -.231E+03   0.706E+02 0.385E+02 0.231E+03   -.539E+01 -.137E+01 -.380E+00   0.228E-04 -.788E-05 0.299E-05
   0.518E+02 -.182E+02 -.241E+03   -.541E+02 0.201E+02 0.246E+03   0.238E+01 -.186E+01 -.450E+01   -.121E-04 -.572E-05 0.524E-04
   0.223E+02 -.577E+02 -.218E+03   -.244E+02 0.604E+02 0.214E+03   0.207E+01 -.275E+01 0.412E+01   0.154E-04 0.349E-04 0.256E-04
   0.497E+02 0.556E+02 -.245E+03   -.513E+02 -.605E+02 0.245E+03   0.164E+01 0.491E+01 -.131E-01   -.239E-04 -.360E-04 0.607E-04
   0.645E+02 -.328E+02 -.221E+03   -.670E+02 0.353E+02 0.217E+03   0.258E+01 -.245E+01 0.425E+01   -.275E-04 0.214E-05 0.534E-04
   -.328E+02 0.284E+02 -.257E+03   0.351E+02 -.308E+02 0.261E+03   -.223E+01 0.242E+01 -.421E+01   0.392E-04 -.311E-04 0.400E-04
   -.226E+02 -.364E+02 -.299E+03   0.222E+02 0.376E+02 0.301E+03   0.392E+00 -.114E+01 -.205E+01   0.139E-03 -.404E-04 -.107E-03
   0.228E+02 -.434E+02 -.235E+03   -.253E+02 0.454E+02 0.239E+03   0.245E+01 -.198E+01 -.442E+01   -.575E-05 0.119E-04 0.336E-04
   0.171E+03 -.255E+01 -.958E+03   -.171E+03 0.459E+01 0.959E+03   -.361E+00 -.203E+01 -.557E+00   -.665E-04 -.142E-04 0.235E-03
   -.280E+02 -.151E+03 -.927E+03   0.281E+02 0.151E+03 0.928E+03   -.928E-01 -.138E+00 -.634E+00   0.800E-04 0.397E-04 0.813E-04
   -.343E+02 -.751E+01 -.986E+03   0.376E+02 0.608E+01 0.982E+03   -.331E+01 0.143E+01 0.388E+01   0.214E-03 -.437E-04 0.157E-03
 -----------------------------------------------------------------------------------------------
   0.336E+02 0.235E+02 0.674E+02   0.149E-12 -.114E-12 0.479E-10   -.335E+02 -.236E+02 -.675E+02   0.258E-02 0.144E-02 0.355E-01
 
 
 POSITION                                       TOTAL-FORCE (eV/Angst)
 -----------------------------------------------------------------------------------
      0.99046      3.89727      0.91670        -1.489996     -1.864691     -0.685144
      4.22806      9.97101      0.91670        -1.499942     -1.884338     -0.754237
      8.54576      3.89727      0.91670        -1.349821     -1.953674     -0.789896
     11.78336      9.97101      0.91670        -1.345235     -1.839318     -0.743690
      0.16045     10.12553      1.16818        -0.264632      1.653437      0.391456
      4.47815      4.05179      1.16818        -0.215434      1.708006      0.191803
      7.71575     10.12553      1.16818        -0.098808      1.774395      0.134490
     12.03345      4.05179      1.16818        -0.139535      1.821137      0.529498
      3.52055      0.82336      1.36715        -0.861545     -0.877725      1.544626
      6.75815      6.89709      1.36715        -0.860180     -0.869456      1.515815
     11.07585      0.82336      1.36715        -0.764418     -0.829177      1.718339
     14.31345      6.89709      1.36715        -0.965597     -0.960229      1.791982
      2.69053      7.05173      1.61862         1.451671      0.460525     -2.498665
      7.00822      0.97799      1.61862         1.589984      0.423366     -2.492555
     10.24583      7.05173      1.61862         1.774003      0.406874     -2.451869
     14.56352      0.97799      1.61862         1.517517      0.501474     -2.454985
      0.53342     11.93264      4.09577         0.009676      0.000209     -0.002441
      4.85609      5.87087      4.09922         0.005886     -0.002657      0.005819
      8.12121     11.95274      4.10595        -0.014029     -0.001655     -0.001573
     12.40470      5.86162      4.15412        -0.003959      0.015377      0.000858
      0.81095      6.00493      4.37664         0.002673      0.004159     -0.003588
      4.04333     12.08342      4.36532         0.005498      0.008503     -0.000076
      8.36560      5.97586      4.35312        -0.001529      0.002295      0.020640
     11.59525     12.08656      4.38224         0.000588     -0.018362     -0.011390
     -0.18277      2.79219      4.58947         0.007899      0.003715     -0.006939
      3.02938      8.86217      4.58553         0.002090      0.007615     -0.004174
      7.36284      2.77249      4.57143        -0.001260     -0.010041      0.006745
     10.66041      8.85959      4.57997        -0.002098     -0.003847      0.003759
      3.35380      2.93306      4.80822         0.010965     -0.006808      0.001144
      6.56097      9.02242      4.77930         0.005711      0.010800      0.003806
     10.93152      2.97336      4.88439        -0.014120      0.005780      0.000003
     14.13506      8.98458      4.85783        -0.006558     -0.001604     -0.005258
      1.15744      7.78050      7.53711         0.004979     -0.001388      0.005944
      5.45185      1.68429      7.49991        -0.002893     -0.000525     -0.007924
      8.68803      7.85650      7.27436        -0.003183     -0.015004     -0.011957
     13.05494      1.66596      7.52693         0.001245      0.008255      0.012173
      1.48023      1.94849      7.48618         0.007754     -0.008337      0.010955
      4.69068      8.00591      7.48966         0.001717     -0.011893      0.005536
      8.97882      1.90520      7.51896        -0.008525      0.018013     -0.008985
     12.24732      8.04687      7.68012        -0.002785     -0.007061     -0.000854
     -0.55516     10.79200      7.77321         0.012051      0.000135     -0.000826
      3.73143      4.71143      7.79656         0.006462      0.008128      0.001199
      6.95548     10.77025      7.78167        -0.004966     -0.010325     -0.017253
     11.41655      4.62223      7.98875        -0.017778      0.012462      0.016287
     -0.27290      4.93242      8.04937        -0.004887      0.023181      0.008748
      2.92502     11.00479      8.05754        -0.000336      0.013004     -0.001945
      7.20777      4.84126      7.98503         0.001363      0.000149      0.005691
     10.49517     11.00192      8.07288         0.006855     -0.000623      0.003477
      9.95549      6.68188      9.97075         0.020728      0.002684     -0.009304
      0.18233      2.09605      0.00000         0.268347      0.967048      1.265083
      3.41993      8.16979      0.00000         0.290948      0.996573      1.265532
      7.73763      2.09605      0.00000         0.258842      0.982920      1.279860
     10.97523      8.16979      0.00000         0.236270      0.982509      1.283777
      2.77584      5.24249      0.37900        -0.000979     -0.930201      0.579018
      6.01345     11.31622      0.37900        -0.040263     -0.929116      0.583610
     10.33114      5.24249      0.37900        -0.117611     -0.921793      0.576393
     13.56875     11.31622      0.37900        -0.050438     -0.928487      0.566498
      2.16153     10.82255      0.59691         0.412927      1.204448     -0.188737
      6.47922      4.74881      0.59691         0.401250      1.222480     -0.187517
      9.71683     10.82255      0.59691         0.349171      1.180820     -0.194908
     14.03452      4.74881      0.59691         0.394185      1.172098     -0.220558
      2.73983      2.74654      1.05910         1.187674     -1.036650     -0.442672
      5.97744      8.82028      1.05910         1.164283     -1.060986     -0.410990
     10.29513      2.74654      1.05910         1.110661     -1.024595     -0.462638
     13.53273      8.82028      1.05910         1.131359     -1.018063     -0.469160
      0.94100      8.20246      1.47622        -1.104141     -0.302099     -0.903620
      5.25870      2.12872      1.47622        -1.115660     -0.307137     -0.890165
      8.49630      8.20246      1.47622        -1.188584     -0.328368     -0.889867
     12.81400      2.12872      1.47622        -1.149353     -0.319966     -0.908891
      1.51931      0.12646      1.93841         0.343307     -0.096674      0.208206
      4.75691      6.20019      1.93841         0.401721     -0.033709      0.213566
      9.07461      0.12646      1.93841         0.410433     -0.037548      0.246300
     12.31221      6.20019      1.93841         0.339359     -0.101880      0.368089
      0.90515      5.70640      2.15632        -0.375978      0.320555      0.110830
      4.14276     11.78014      2.15632        -0.353343      0.313923      0.133607
      8.46045      5.70640      2.15632        -0.415294      0.287797      0.140269
     11.69806     11.78014      2.15632        -0.408868      0.309799      0.180195
      0.26091      2.77910      2.53532         0.211617      0.382331      0.521012
      3.49852      8.85284      2.53532         0.225539      0.405314      0.603473
      7.81621      2.77910      2.53532         0.236145      0.380820      0.437583
     11.05382      8.85284      2.53532         0.259919      0.384738      0.505282
     -0.22191     10.11458      3.20415         0.001594      0.004790     -0.007573
      4.10820      4.05328      3.19786         0.002835      0.004314     -0.003326
      7.34984     10.13091      3.19518        -0.002885      0.002275      0.009811
     11.66044      4.03975      3.21334         0.009234      0.002057      0.006600
      3.39503      1.13141      3.50199        -0.009173      0.009311     -0.000965
      6.63247      7.20718      3.51197         0.000040     -0.007638      0.000731
     10.95408      1.13631      3.52161         0.006733      0.011119     -0.005465
     14.19101      7.20571      3.52330         0.001341     -0.004407     -0.004665
      2.80680      6.70545      3.84568         0.006019      0.007811     -0.007803
      7.14023      0.61643      3.85114         0.002882     -0.000718      0.001162
     10.35942      6.69962      3.85238        -0.000279     -0.005221     -0.003609
     14.67695      0.63368      3.85283        -0.003718     -0.002014      0.002519
      2.28213     10.81053      4.33600        -0.008748     -0.006109     -0.005903
      6.59253      4.72175      4.31501         0.005020      0.015590     -0.005337
      9.84257     10.79313      4.33580        -0.000427      0.005931     -0.003893
     14.16173      4.73659      4.35292         0.004871      0.007592     -0.002116
      1.59687      4.06403      4.61550        -0.001748      0.001371      0.002936
      4.81819     10.14163      4.63263         0.011274     -0.015184      0.005906
      9.12785      4.06239      4.65837         0.016823      0.001085     -0.002494
     12.38515     10.15437      4.65328        -0.011066      0.026873     -0.005834
      1.04787      8.14764      5.14803         0.003552     -0.007803     -0.000142
      5.35847      2.05095      5.09783        -0.003679      0.004475      0.009261
      8.61208      8.14561      5.10767         0.001884      0.010307     -0.005837
     12.92758      2.05711      5.18377         0.000779      0.003673      0.016293
      1.60208      1.57614      5.36403        -0.005240     -0.006043     -0.002620
      4.80798      7.65925      5.36422        -0.001801     -0.000585      0.003664
      9.15215      1.58627      5.39576        -0.002375      0.007724      0.007364
     12.37304      7.66992      5.39876        -0.000337      0.000704     -0.000787
     -0.25228     10.84488      5.74874        -0.002186      0.012041      0.000430
      4.05665      4.80228      5.76558        -0.006459     -0.000911     -0.005111
      7.30472     10.84791      5.75220        -0.012896     -0.014672      0.020037
     11.61471      4.77154      5.78513        -0.006725     -0.005819     -0.016102
      0.51090      5.97468      6.44449        -0.001362     -0.007451      0.010900
      3.68259     12.04556      6.43130         0.011620      0.000962      0.014717
      7.92930      5.98934      6.41865        -0.022718      0.000027     -0.003845
     11.15766     12.06357      6.43605         0.003147     -0.008539      0.010400
      2.98094      9.11074      6.77258         0.008986      0.019993     -0.009743
      7.23221      3.02145      6.72685         0.010737      0.002726      0.000905
     10.50957      9.05711      6.78748        -0.013885      0.007636     -0.003660
     -0.19345      3.04882      6.74449        -0.005132     -0.012602     -0.012317
      3.47787      2.59171      6.97063        -0.003304     -0.005700     -0.002429
      6.68622      8.64260      6.94219         0.004535     -0.000166     -0.013918
     11.00170      2.60880      7.10367         0.017127     -0.003055      0.016549
     14.26196      8.62629      7.04242         0.004251      0.011142      0.000670
      3.01048      6.72792      7.89183        -0.013902     -0.004063      0.003490
      7.28021      0.62570      7.82978         0.001764     -0.009843      0.005235
     10.42392      6.63820      7.82186        -0.009786      0.005064      0.016490
     14.89237      0.66943      7.86980        -0.001227      0.005595     -0.009092
      2.22060      0.04098      7.92610        -0.013148      0.006087     -0.004669
      5.46123      6.12205      8.00785        -0.000171      0.009956     -0.015541
      8.63098     12.13874      8.02462        -0.002135     -0.018109     -0.006616
     13.00071      6.06529      7.88155         0.009446      0.010586      0.021288
      1.73373      3.88749      8.43001        -0.000329     -0.001607     -0.001905
      4.94769      9.93901      8.42393        -0.008806      0.008996      0.010060
      8.96559      3.75380      8.49861         0.013865      0.003410      0.011207
     12.54640     10.15790      8.20013         0.011849      0.006796      0.009076
      1.13573      9.70665      8.54288        -0.003198      0.006057     -0.004173
      5.41797      3.61857      8.51385        -0.005534     -0.006477      0.012585
      8.61361      9.62014      8.49273         0.009155      0.013558      0.021605
     13.14569      3.54955      8.52927         0.003336      0.002507     -0.000953
      0.41360      6.58668      8.98904        -0.021981     -0.014488     -0.008940
      4.72673      0.50766      8.98031         0.001464      0.001148     -0.008250
      8.10127      6.56400      9.02033         0.022510      0.006171      0.008948
     12.27759      0.49462      8.99026         0.002012      0.003478     -0.007587
     11.40053      8.19455      9.65446         0.017929      0.033011     -0.017056
     10.97505      5.05020     10.00545        -0.010255      0.043481     -0.000872
     11.14079     10.09427     12.03742         0.022287      0.015305     -0.007887
      7.84482      8.41893     12.72709         0.025875     -0.026606      0.025037
      9.65717     10.38658     11.10575        -0.016976     -0.015683      0.001431
      8.04512      6.96744     11.77256         0.032069     -0.009271     -0.009231
      7.82352      8.52833     10.95598         0.032163     -0.007451      0.028485
     10.29533      7.81231     12.68774         0.030768      0.003055      0.004013
     10.85429      8.39592     10.66658         0.011865      0.018378      0.014490
      9.57166     10.23172     12.86503         0.028286      0.025434     -0.000366
      8.32739      8.04280     11.80819        -0.005975      0.004200     -0.014047
     10.07546      9.83679     11.96635        -0.015345     -0.010958      0.026938
      9.84704      8.32364     11.81632         0.026267     -0.006447      0.027722
 -----------------------------------------------------------------------------------
    total drift:                                0.104462     -0.149225     -0.108896


--------------------------------------------------------------------------------------------------------



  FREE ENERGIE OF THE ION-ELECTRON SYSTEM (eV)
  ---------------------------------------------------
  free  energy   TOTEN  =     -1348.94682485 eV

  energy  without entropy=    -1348.94682485  energy(sigma->0) =    -1348.94682485
 


--------------------------------------------------------------------------------------------------------


    POTLOK:  cpu time    0.2878: real time    0.2885


--------------------------------------------------------------------------------------------------------


 Dimer: Init Mode:
 Dimer: MODECAR found
 Dimer: -----------------
 Dimer: Itr    1 Rot    0

 Dimer: Central Point
 Dimer: F0      0.195312

 Dimer: Projection
 Dimer: N*F0  2.547353092872270E-003
 Dimer: F0sq  3.814689156922146E-002
 Dimer: Feffsq   6.489007779765917E-006
 
 stress matrix after NEB project (eV)
    -52.62634    -24.42133      2.12559
    -24.42133    -70.89577      2.67455
      2.12559      2.67455     -8.03346
  FORCES: max atom, RMS     0.044768    0.015538
  FORCE total and by dimension    0.195312    0.043481
  Stress total and by dimension   95.270264   70.895766
 OPT: skip step - force has converged
 writing wavefunctions
     LOOP+:  cpu time  375.4595: real time  376.6682
    4ORBIT:  cpu time    0.0000: real time    0.0000

 total amount of memory used by VASP MPI-rank0   174542. kBytes
=======================================================================

   base      :      30000. kBytes
   nonlr-proj:      11326. kBytes
   fftplans  :       9317. kBytes
   grid      :      26149. kBytes
   one-center:        839. kBytes
   wavefun   :      96911. kBytes
 
  
  
 General timing and accounting informations for this job:
 ========================================================
  
                  Total CPU time used (sec):      404.750
                            User time (sec):      380.097
                          System time (sec):       24.653
                         Elapsed time (sec):      406.284
  
                   Maximum memory used (kb):      420788.
                   Average memory used (kb):           0.
  
                          Minor page faults:        95610
                          Major page faults:            0
                 Voluntary context switches:         1138
