       N       E                     dE             d eps       ncg     rms          rms(c)
DAV:   1    -0.137723571550E+04   -0.13772E+04   -0.13619E+00  6336   0.986E-01    0.953E-01
DAV:   2    -0.137899654968E+04   -0.17608E+01   -0.12125E+00  6176   0.955E-01    0.415E-01
DAV:   3    -0.137900652489E+04   -0.99752E-02   -0.43887E-02  6720   0.231E-01    0.278E-01
DAV:   4    -0.137900656637E+04   -0.41482E-04   -0.21858E-03  5568   0.579E-02    0.225E-01
DAV:   5    -0.137900656853E+04   -0.21520E-05   -0.20570E-04  6848   0.184E-02    0.189E-01
DAV:   6    -0.137900657764E+04   -0.91121E-05   -0.25613E-05  6944   0.745E-03    0.162E-01
DAV:   7    -0.137900658110E+04   -0.34652E-05   -0.23150E-05  6848   0.794E-03    0.131E-01
DAV:   8    -0.137900658458E+04   -0.34774E-05   -0.19303E-05  6736   0.688E-03    0.107E-01
DAV:   9    -0.137900658859E+04   -0.40090E-05   -0.61619E-06  7312   0.368E-03    0.901E-02
DAV:  10    -0.137900659176E+04   -0.31661E-05   -0.74816E-06  6528   0.455E-03    0.685E-02
DAV:  11    -0.137900659528E+04   -0.35294E-05   -0.43105E-05  6464   0.107E-02    0.230E-02
DAV:  12    -0.137900659666E+04   -0.13782E-05   -0.76612E-06  7040   0.361E-03    0.145E-02
DAV:  13    -0.137900659688E+04   -0.21957E-06   -0.94473E-07  7296   0.153E-03    0.741E-03
DAV:  14    -0.137900659690E+04   -0.16778E-07   -0.70956E-07  7024   0.127E-03    0.329E-03
DAV:  15    -0.137900659687E+04    0.27721E-07   -0.10523E-07  6064   0.459E-04    0.158E-03
DAV:  16    -0.137900659684E+04    0.27852E-07   -0.17494E-08  3072   0.271E-04    0.661E-04
DAV:  17    -0.137900659682E+04    0.20344E-07   -0.18391E-08  3136   0.177E-04    0.410E-04
DAV:  18    -0.137900659682E+04    0.26048E-08   -0.42909E-09  2944   0.104E-04
   1 F= -.13982887E+04 E0= -.13982887E+04  d E =-.139829E+04  mag=     0.0000
       N       E                     dE             d eps       ncg     rms          rms(c)
DAV:   1    -0.137900532419E+04    0.12726E-02   -0.58218E-01  5120   0.869E-01    0.121E-01
DAV:   2    -0.137900569900E+04   -0.37481E-03   -0.55627E-03  5536   0.801E-02    0.780E-02
DAV:   3    -0.137900563926E+04    0.59740E-04   -0.57240E-04  6144   0.358E-02    0.331E-02
DAV:   4    -0.137900564198E+04   -0.27244E-05   -0.11185E-04  6048   0.151E-02    0.152E-02
DAV:   5    -0.137900563949E+04    0.24914E-05   -0.24626E-05  6272   0.725E-03    0.723E-03
DAV:   6    -0.137900563908E+04    0.41346E-06   -0.33990E-06  5728   0.244E-03    0.372E-03
DAV:   7    -0.137900563898E+04    0.94573E-07   -0.21163E-06  6496   0.219E-03    0.152E-03
DAV:   8    -0.137900563902E+04   -0.37558E-07   -0.35690E-07  5952   0.102E-03    0.995E-04
DAV:   9    -0.137900563910E+04   -0.80690E-07   -0.11865E-07  4976   0.533E-04    0.466E-04
DAV:  10    -0.137900563919E+04   -0.93845E-07   -0.57973E-08  4880   0.474E-04    0.413E-04
DAV:  11    -0.137900563926E+04   -0.67841E-07   -0.36496E-08  4528   0.309E-04    0.233E-04
DAV:  12    -0.137900563933E+04   -0.67099E-07   -0.84108E-09  3248   0.183E-04    0.116E-04
DAV:  13    -0.137900563942E+04   -0.91211E-07   -0.13343E-08  3552   0.194E-04    0.151E-04
DAV:  14    -0.137900563946E+04   -0.40804E-07   -0.59176E-09  3328   0.118E-04    0.109E-04
DAV:  15    -0.137900563949E+04   -0.31054E-07   -0.36972E-09  3072   0.843E-05    0.458E-05
DAV:  16    -0.137900563952E+04   -0.32436E-07   -0.28961E-09  3072   0.677E-05    0.522E-05
DAV:  17    -0.137900563954E+04   -0.16429E-07   -0.13048E-09  3072   0.420E-05    0.498E-05
DAV:  18    -0.137900563955E+04   -0.13184E-07   -0.10783E-09  3072   0.461E-05    0.178E-05
DAV:  19    -0.137900563956E+04   -0.81491E-08   -0.55490E-10  3072   0.303E-05
   2 F= -.13982879E+04 E0= -.13982879E+04  d E =0.835042E-03  mag=    -0.0000
       N       E                     dE             d eps       ncg     rms          rms(c)
DAV:   1    -0.137900525216E+04    0.38739E-03   -0.11596E+00  5120   0.122E+00    0.142E-01
DAV:   2    -0.137900613180E+04   -0.87964E-03   -0.11563E-02  5536   0.110E-01    0.856E-02
DAV:   3    -0.137900603589E+04    0.95912E-04   -0.86186E-04  6208   0.361E-02    0.460E-02
DAV:   4    -0.137900601557E+04    0.20323E-04   -0.25032E-04  5536   0.226E-02    0.170E-02
DAV:   5    -0.137900601384E+04    0.17316E-05   -0.57158E-05  5408   0.104E-02    0.106E-02
DAV:   6    -0.137900601420E+04   -0.35987E-06   -0.14656E-05  6880   0.423E-03    0.658E-03
DAV:   7    -0.137900601374E+04    0.45751E-06   -0.26884E-06  6528   0.236E-03    0.368E-03
DAV:   8    -0.137900601389E+04   -0.15115E-06   -0.15046E-06  6208   0.172E-03    0.192E-03
DAV:   9    -0.137900601394E+04   -0.50451E-07   -0.37966E-07  6064   0.879E-04    0.852E-04
DAV:  10    -0.137900601409E+04   -0.15450E-06   -0.81663E-08  4736   0.404E-04    0.311E-04
DAV:  11    -0.137900601426E+04   -0.16589E-06   -0.28605E-08  4352   0.281E-04    0.289E-04
DAV:  12    -0.137900601438E+04   -0.12133E-06   -0.14826E-08  3744   0.221E-04    0.136E-04
DAV:  13    -0.137900601448E+04   -0.10019E-06   -0.14974E-08  3760   0.176E-04    0.142E-04
DAV:  14    -0.137900601455E+04   -0.68481E-07   -0.37725E-09  3104   0.974E-05    0.863E-05
DAV:  15    -0.137900601461E+04   -0.58440E-07   -0.39235E-09  3104   0.849E-05    0.360E-05
DAV:  16    -0.137900601465E+04   -0.39319E-07   -0.19844E-09  3072   0.542E-05    0.307E-05
DAV:  17    -0.137900601466E+04   -0.17288E-07   -0.10600E-09  3072   0.334E-05    0.263E-05
DAV:  18    -0.137900601468E+04   -0.11307E-07   -0.56400E-10  3072   0.271E-05    0.142E-05
DAV:  19    -0.137900601468E+04   -0.25175E-08   -0.44798E-10  3072   0.256E-05
   3 F= -.13982882E+04 E0= -.13982882E+04  d E =-.312027E-03  mag=    -0.0000
       N       E                     dE             d eps       ncg     rms          rms(c)
DAV:   1    -0.137900526559E+04    0.74909E-03   -0.11582E+00  5120   0.123E+00    0.157E-01
DAV:   2    -0.137900597946E+04   -0.71388E-03   -0.11305E-02  5536   0.119E-01    0.113E-01
DAV:   3    -0.137900584427E+04    0.13519E-03   -0.12272E-03  6208   0.535E-02    0.536E-02
DAV:   4    -0.137900585052E+04   -0.62498E-05   -0.23849E-04  6080   0.222E-02    0.218E-02
DAV:   5    -0.137900584312E+04    0.74081E-05   -0.69757E-05  5440   0.146E-02    0.959E-03
DAV:   6    -0.137900584302E+04    0.95504E-07   -0.95019E-06  5632   0.434E-03    0.461E-03
DAV:   7    -0.137900584299E+04    0.33164E-07   -0.41149E-06  5888   0.316E-03    0.295E-03
DAV:   8    -0.137900584298E+04    0.62864E-08   -0.74188E-07  6112   0.142E-03    0.151E-03
DAV:   9    -0.137900584316E+04   -0.17688E-06   -0.40261E-07  5952   0.128E-03    0.729E-04
DAV:  10    -0.137900584342E+04   -0.26757E-06   -0.17147E-07  5728   0.834E-04    0.645E-04
DAV:  11    -0.137900584367E+04   -0.24590E-06   -0.97616E-08  5472   0.589E-04    0.291E-04
DAV:  12    -0.137900584399E+04   -0.32272E-06   -0.35994E-08  4320   0.521E-04    0.243E-04
DAV:  13    -0.137900584419E+04   -0.19548E-06   -0.45365E-08  4320   0.313E-04    0.188E-04
DAV:  14    -0.137900584432E+04   -0.13084E-06   -0.10063E-08  3808   0.132E-04    0.113E-04
DAV:  15    -0.137900584448E+04   -0.15566E-06   -0.61864E-09  3328   0.970E-05    0.604E-05
DAV:  16    -0.137900584456E+04   -0.82859E-07   -0.35813E-09  3168   0.620E-05    0.413E-05
DAV:  17    -0.137900584465E+04   -0.90979E-07   -0.42942E-09  3152   0.583E-05    0.294E-05
DAV:  18    -0.137900584468E+04   -0.34546E-07   -0.17553E-09  3136   0.418E-05    0.286E-05
DAV:  19    -0.137900584470E+04   -0.20984E-07   -0.11064E-09  3072   0.339E-05    0.230E-05
DAV:  20    -0.137900584472E+04   -0.13446E-07   -0.70560E-10  3072   0.300E-05    0.158E-05
DAV:  21    -0.137900584472E+04   -0.51950E-08   -0.28313E-10  3072   0.224E-05
   4 F= -.13982885E+04 E0= -.13982885E+04  d E =-.286626E-03  mag=     0.0000
       N       E                     dE             d eps       ncg     rms          rms(c)
DAV:   1    -0.137900476907E+04    0.10756E-02   -0.11649E+00  5120   0.120E+00    0.174E-01
DAV:   2    -0.137900569616E+04   -0.92709E-03   -0.12524E-02  5600   0.115E-01    0.117E-01
DAV:   3    -0.137900552221E+04    0.17395E-03   -0.11216E-03  6144   0.464E-02    0.579E-02
DAV:   4    -0.137900551146E+04    0.10749E-04   -0.30281E-04  6080   0.237E-02    0.214E-02
DAV:   5    -0.137900550734E+04    0.41137E-05   -0.56885E-05  5920   0.109E-02    0.116E-02
DAV:   6    -0.137900550526E+04    0.20836E-05   -0.77060E-06  5600   0.406E-03    0.585E-03
DAV:   7    -0.137900550428E+04    0.97796E-06   -0.45721E-06  6736   0.361E-03    0.230E-03
DAV:   8    -0.137900550403E+04    0.25723E-06   -0.10534E-06  6096   0.179E-03    0.138E-03
DAV:   9    -0.137900550405E+04   -0.27343E-07   -0.47966E-07  6352   0.149E-03    0.985E-04
DAV:  10    -0.137900550439E+04   -0.33298E-06   -0.33079E-07  6400   0.144E-03    0.694E-04
DAV:  11    -0.137900550493E+04   -0.54417E-06   -0.38484E-07  5936   0.109E-03    0.452E-04
DAV:  12    -0.137900550534E+04   -0.40690E-06   -0.11243E-07  5248   0.428E-04    0.392E-04
DAV:  13    -0.137900550561E+04   -0.26957E-06   -0.16867E-08  3968   0.204E-04    0.235E-04
DAV:  14    -0.137900550607E+04   -0.46685E-06   -0.32279E-08  4160   0.208E-04    0.114E-04
DAV:  15    -0.137900550627E+04   -0.19357E-06   -0.93492E-09  3712   0.104E-04    0.775E-05
DAV:  16    -0.137900550646E+04   -0.19676E-06   -0.70285E-09  3392   0.751E-05    0.471E-05
DAV:  17    -0.137900550658E+04   -0.11592E-06   -0.48471E-09  3232   0.622E-05    0.353E-05
DAV:  18    -0.137900550663E+04   -0.53085E-07   -0.25288E-09  3136   0.472E-05    0.231E-05
DAV:  19    -0.137900550667E+04   -0.38242E-07   -0.24648E-09  3040   0.450E-05    0.143E-05
DAV:  20    -0.137900550668E+04   -0.79017E-08   -0.11245E-09  3136   0.335E-05
   5 F= -.13982874E+04 E0= -.13982874E+04  d E =0.106543E-02  mag=    -0.0000
       N       E                     dE             d eps       ncg     rms          rms(c)
DAV:   1    -0.137900415858E+04    0.13481E-02   -0.11783E+00  5120   0.105E+00    0.106E-01
DAV:   2    -0.137900444768E+04   -0.28910E-03   -0.58629E-03  5376   0.754E-02    0.644E-02
DAV:   3    -0.137900436263E+04    0.85050E-04   -0.64229E-04  6176   0.269E-02    0.222E-02
DAV:   4    -0.137900436264E+04   -0.11831E-07   -0.86408E-05  5984   0.957E-03    0.138E-02
DAV:   5    -0.137900436147E+04    0.11775E-05   -0.78040E-06  5792   0.311E-03    0.714E-03
DAV:   6    -0.137900436096E+04    0.51031E-06   -0.17163E-06  6432   0.219E-03    0.245E-03
DAV:   7    -0.137900436093E+04    0.27067E-07   -0.74443E-07  6688   0.107E-03    0.111E-03
DAV:   8    -0.137900436121E+04   -0.28590E-06   -0.17240E-07  5728   0.526E-04    0.781E-04
DAV:   9    -0.137900436155E+04   -0.33241E-06   -0.53822E-08  4464   0.380E-04    0.377E-04
DAV:  10    -0.137900436199E+04   -0.43942E-06   -0.81051E-08  4928   0.440E-04    0.236E-04
DAV:  11    -0.137900436230E+04   -0.31258E-06   -0.31062E-08  4256   0.212E-04    0.169E-04
DAV:  12    -0.137900436256E+04   -0.25882E-06   -0.10766E-08  3392   0.121E-04    0.963E-05
DAV:  13    -0.137900436279E+04   -0.23462E-06   -0.15833E-08  3904   0.112E-04    0.738E-05
DAV:  14    -0.137900436289E+04   -0.95417E-07   -0.37963E-09  3168   0.815E-05    0.485E-05
DAV:  15    -0.137900436296E+04   -0.77067E-07   -0.33265E-09  3024   0.761E-05    0.316E-05
DAV:  16    -0.137900436302E+04   -0.57014E-07   -0.31421E-09  3104   0.679E-05    0.362E-05
DAV:  17    -0.137900436306E+04   -0.34153E-07   -0.18577E-09  3072   0.556E-05    0.267E-05
DAV:  18    -0.137900436307E+04   -0.18743E-07   -0.11860E-09  3072   0.446E-05    0.177E-05
DAV:  19    -0.137900436308E+04   -0.56607E-08   -0.37347E-10  2944   0.282E-05
   6 F= -.13982864E+04 E0= -.13982864E+04  d E =0.103582E-02  mag=     0.0000
       N       E                     dE             d eps       ncg     rms          rms(c)
DAV:   1    -0.137900482078E+04   -0.45771E-03   -0.11786E+00  5120   0.106E+00    0.135E-01
DAV:   2    -0.137900522144E+04   -0.40066E-03   -0.72817E-03  5472   0.872E-02    0.855E-02
DAV:   3    -0.137900513052E+04    0.90925E-04   -0.85280E-04  6528   0.371E-02    0.314E-02
DAV:   4    -0.137900513477E+04   -0.42526E-05   -0.13819E-04  6144   0.139E-02    0.176E-02
DAV:   5    -0.137900513144E+04    0.33259E-05   -0.19273E-05  5696   0.659E-03    0.823E-03
DAV:   6    -0.137900513048E+04    0.96243E-06   -0.40502E-06  6400   0.321E-03    0.294E-03
DAV:   7    -0.137900513071E+04   -0.22742E-06   -0.15743E-06  6784   0.208E-03    0.154E-03
DAV:   8    -0.137900513104E+04   -0.32941E-06   -0.36719E-07  6528   0.102E-03    0.101E-03
DAV:   9    -0.137900513182E+04   -0.78337E-06   -0.17944E-07  5376   0.107E-03    0.566E-04
DAV:  10    -0.137900513249E+04   -0.67156E-06   -0.18865E-07  5664   0.866E-04    0.424E-04
DAV:  11    -0.137900513315E+04   -0.65507E-06   -0.13921E-07  5376   0.578E-04    0.318E-04
DAV:  12    -0.137900513363E+04   -0.48467E-06   -0.36586E-08  4608   0.338E-04    0.180E-04
DAV:  13    -0.137900513397E+04   -0.33881E-06   -0.21421E-08  4256   0.199E-04    0.128E-04
DAV:  14    -0.137900513422E+04   -0.25299E-06   -0.82467E-09  3552   0.103E-04    0.799E-05
DAV:  15    -0.137900513440E+04   -0.17979E-06   -0.60706E-09  3328   0.761E-05    0.526E-05
DAV:  16    -0.137900513451E+04   -0.11089E-06   -0.40096E-09  3168   0.766E-05    0.320E-05
DAV:  17    -0.137900513460E+04   -0.84066E-07   -0.47688E-09  3200   0.768E-05    0.422E-05
DAV:  18    -0.137900513462E+04   -0.24069E-07   -0.15677E-09  3136   0.550E-05    0.343E-05
DAV:  19    -0.137900513464E+04   -0.23327E-07   -0.10205E-09  3072   0.428E-05    0.158E-05
DAV:  20    -0.137900513466E+04   -0.13082E-07   -0.48575E-10  3072   0.332E-05    0.149E-05
DAV:  21    -0.137900513466E+04   -0.72032E-08   -0.11345E-10  2944   0.209E-05
   7 F= -.13982876E+04 E0= -.13982876E+04  d E =-.123999E-02  mag=     0.0000
       N       E                     dE             d eps       ncg     rms          rms(c)
DAV:   1    -0.137900545660E+04   -0.32195E-03   -0.11621E+00  5120   0.111E+00    0.192E-01
DAV:   2    -0.137900633974E+04   -0.88314E-03   -0.12114E-02  5632   0.104E-01    0.136E-01
DAV:   3    -0.137900615504E+04    0.18471E-03   -0.13413E-03  6400   0.497E-02    0.672E-02
DAV:   4    -0.137900615176E+04    0.32794E-05   -0.32276E-04  6304   0.231E-02    0.228E-02
DAV:   5    -0.137900614534E+04    0.64219E-05   -0.52599E-05  5696   0.111E-02    0.116E-02
DAV:   6    -0.137900614356E+04    0.17712E-05   -0.10956E-05  6048   0.450E-03    0.499E-03
DAV:   7    -0.137900614333E+04    0.23517E-06   -0.37651E-06  6656   0.289E-03    0.242E-03
DAV:   8    -0.137900614358E+04   -0.24692E-06   -0.61885E-07  5888   0.149E-03    0.140E-03
DAV:   9    -0.137900614407E+04   -0.49366E-06   -0.46818E-07  6624   0.136E-03    0.904E-04
DAV:  10    -0.137900614504E+04   -0.97048E-06   -0.27855E-07  5760   0.118E-03    0.571E-04
DAV:  11    -0.137900614619E+04   -0.11477E-05   -0.22847E-07  5440   0.105E-03    0.305E-04
DAV:  12    -0.137900614694E+04   -0.75660E-06   -0.16287E-07  5040   0.528E-04    0.351E-04
DAV:  13    -0.137900614724E+04   -0.29201E-06   -0.16758E-08  4064   0.154E-04    0.230E-04
DAV:  14    -0.137900614775E+04   -0.51029E-06   -0.21311E-08  4000   0.146E-04    0.103E-04
DAV:  15    -0.137900614810E+04   -0.35172E-06   -0.12633E-08  3712   0.105E-04    0.750E-05
DAV:  16    -0.137900614830E+04   -0.19780E-06   -0.59812E-09  3392   0.697E-05    0.510E-05
DAV:  17    -0.137900614841E+04   -0.11291E-06   -0.35494E-09  3136   0.517E-05    0.306E-05
DAV:  18    -0.137900614848E+04   -0.73938E-07   -0.31017E-09  3072   0.468E-05    0.188E-05
DAV:  19    -0.137900614851E+04   -0.29278E-07   -0.17913E-09  3072   0.385E-05    0.140E-05
DAV:  20    -0.137900614852E+04   -0.12340E-07   -0.10640E-09  3136   0.287E-05    0.902E-06
DAV:  21    -0.137900614853E+04   -0.45839E-08   -0.47856E-10  3040   0.223E-05
   8 F= -.13982880E+04 E0= -.13982880E+04  d E =-.401545E-03  mag=     0.0000
       N       E                     dE             d eps       ncg     rms          rms(c)
DAV:   1    -0.137900485689E+04    0.12916E-02   -0.11707E+00  5120   0.107E+00    0.312E-01
DAV:   2    -0.137900552306E+04   -0.66617E-03   -0.11493E-02  5632   0.108E-01    0.255E-01
DAV:   3    -0.137900538827E+04    0.13478E-03   -0.33934E-03  5696   0.908E-02    0.544E-02
DAV:   4    -0.137900533404E+04    0.54230E-04   -0.86932E-04  5600   0.377E-02    0.320E-02
DAV:   5    -0.137900532353E+04    0.10511E-04   -0.14845E-04  6528   0.165E-02    0.162E-02
DAV:   6    -0.137900532170E+04    0.18295E-05   -0.27182E-05  6816   0.709E-03    0.743E-03
DAV:   7    -0.137900532126E+04    0.44444E-06   -0.35370E-06  6560   0.265E-03    0.365E-03
DAV:   8    -0.137900532231E+04   -0.10489E-05   -0.14036E-06  6560   0.187E-03    0.186E-03
DAV:   9    -0.137900532352E+04   -0.12091E-05   -0.58268E-07  5888   0.134E-03    0.109E-03
DAV:  10    -0.137900532540E+04   -0.18814E-05   -0.30114E-07  5360   0.106E-03    0.610E-04
DAV:  11    -0.137900532729E+04   -0.18900E-05   -0.29388E-07  5312   0.101E-03    0.411E-04
DAV:  12    -0.137900532874E+04   -0.14517E-05   -0.19350E-07  4928   0.548E-04    0.383E-04
DAV:  13    -0.137900532938E+04   -0.64140E-06   -0.29778E-08  4608   0.188E-04    0.233E-04
DAV:  14    -0.137900533005E+04   -0.67068E-06   -0.22712E-08  4096   0.147E-04    0.113E-04
DAV:  15    -0.137900533047E+04   -0.41828E-06   -0.12109E-08  3792   0.992E-05    0.887E-05
DAV:  16    -0.137900533068E+04   -0.20614E-06   -0.40019E-09  3264   0.686E-05    0.538E-05
DAV:  17    -0.137900533087E+04   -0.18982E-06   -0.64080E-09  3408   0.705E-05    0.362E-05
DAV:  18    -0.137900533095E+04   -0.86584E-07   -0.28325E-09  3072   0.570E-05    0.321E-05
DAV:  19    -0.137900533101E+04   -0.57640E-07   -0.24348E-09  3104   0.523E-05    0.165E-05
DAV:  20    -0.137900533103E+04   -0.21508E-07   -0.12156E-09  3136   0.420E-05    0.192E-05
DAV:  21    -0.137900533104E+04   -0.89494E-08   -0.37646E-10  2976   0.234E-05
   9 F= -.13982878E+04 E0= -.13982878E+04  d E =0.261572E-03  mag=     0.0000
       N       E                     dE             d eps       ncg     rms          rms(c)
DAV:   1    -0.137900516080E+04    0.17024E-03   -0.11495E+00  5120   0.105E+00    0.209E-01
DAV:   2    -0.137900615369E+04   -0.99290E-03   -0.12334E-02  5728   0.910E-02    0.150E-01
DAV:   3    -0.137900599237E+04    0.16132E-03   -0.12923E-03  6272   0.425E-02    0.793E-02
DAV:   4    -0.137900597882E+04    0.13553E-04   -0.32527E-04  5824   0.198E-02    0.298E-02
DAV:   5    -0.137900596822E+04    0.10598E-04   -0.15294E-04  5632   0.170E-02    0.119E-02
DAV:   6    -0.137900596926E+04   -0.10449E-05   -0.19407E-05  5632   0.532E-03    0.543E-03
DAV:   7    -0.137900597280E+04   -0.35343E-05   -0.50145E-06  5920   0.301E-03    0.316E-03
DAV:   8    -0.137900597508E+04   -0.22869E-05   -0.91078E-07  5856   0.126E-03    0.167E-03
DAV:   9    -0.137900597936E+04   -0.42797E-05   -0.93346E-07  4800   0.139E-03    0.131E-03
DAV:  10    -0.137900598282E+04   -0.34515E-05   -0.37472E-07  5440   0.735E-04    0.106E-03
DAV:  11    -0.137900598564E+04   -0.28276E-05   -0.46205E-07  5120   0.764E-04    0.596E-04
DAV:  12    -0.137900598784E+04   -0.22001E-05   -0.19335E-07  4800   0.513E-04    0.561E-04
DAV:  13    -0.137900598886E+04   -0.10205E-05   -0.66531E-08  4768   0.268E-04    0.258E-04
DAV:  14    -0.137900598992E+04   -0.10578E-05   -0.56924E-08  4320   0.192E-04    0.119E-04
DAV:  15    -0.137900599039E+04   -0.46511E-06   -0.16559E-08  4096   0.120E-04    0.935E-05
DAV:  16    -0.137900599072E+04   -0.33200E-06   -0.10905E-08  3712   0.113E-04    0.480E-05
DAV:  17    -0.137900599092E+04   -0.20365E-06   -0.10080E-08  3584   0.124E-04    0.442E-05
DAV:  18    -0.137900599099E+04   -0.71333E-07   -0.43230E-09  3232   0.103E-04    0.406E-05
DAV:  19    -0.137900599105E+04   -0.58921E-07   -0.25517E-09  3008   0.661E-05    0.254E-05
DAV:  20    -0.137900599108E+04   -0.22905E-07   -0.88358E-10  3072   0.395E-05    0.127E-05
DAV:  21    -0.137900599110E+04   -0.22919E-07   -0.72183E-10  3008   0.353E-05    0.218E-05
DAV:  22    -0.137900599111E+04   -0.97207E-08   -0.25162E-10  3040   0.220E-05
  10 F= -.13982885E+04 E0= -.13982885E+04  d E =-.693495E-03  mag=    -0.0000
       N       E                     dE             d eps       ncg     rms          rms(c)
DAV:   1    -0.137900585965E+04    0.13145E-03   -0.60987E-01  5120   0.777E-01    0.148E-01
DAV:   2    -0.137900638240E+04   -0.52276E-03   -0.76065E-03  5664   0.800E-02    0.101E-01
DAV:   3    -0.137900629640E+04    0.86003E-04   -0.84361E-04  6400   0.394E-02    0.605E-02
DAV:   4    -0.137900628402E+04    0.12376E-04   -0.22386E-04  5600   0.206E-02    0.202E-02
DAV:   5    -0.137900627998E+04    0.40482E-05   -0.55935E-05  5472   0.116E-02    0.987E-03
DAV:   6    -0.137900627969E+04    0.28931E-06   -0.13064E-05  6304   0.529E-03    0.505E-03
DAV:   7    -0.137900628005E+04   -0.35983E-06   -0.32635E-06  6432   0.278E-03    0.261E-03
DAV:   8    -0.137900628085E+04   -0.79986E-06   -0.39901E-07  6144   0.127E-03    0.144E-03
DAV:   9    -0.137900628232E+04   -0.14778E-05   -0.43766E-07  5440   0.143E-03    0.738E-04
DAV:  10    -0.137900628366E+04   -0.13333E-05   -0.28671E-07  5536   0.877E-04    0.795E-04
DAV:  11    -0.137900628499E+04   -0.13320E-05   -0.13462E-07  5248   0.585E-04    0.389E-04
DAV:  12    -0.137900628621E+04   -0.12224E-05   -0.12379E-07  4960   0.592E-04    0.334E-04
DAV:  13    -0.137900628680E+04   -0.59308E-06   -0.63114E-08  4800   0.314E-04    0.241E-04
DAV:  14    -0.137900628716E+04   -0.35705E-06   -0.11028E-08  3680   0.131E-04    0.133E-04
DAV:  15    -0.137900628771E+04   -0.55003E-06   -0.23322E-08  4032   0.124E-04    0.123E-04
DAV:  16    -0.137900628792E+04   -0.20894E-06   -0.48119E-09  3296   0.820E-05    0.604E-05
DAV:  17    -0.137900628809E+04   -0.17117E-06   -0.44479E-09  3072   0.668E-05    0.409E-05
DAV:  18    -0.137900628819E+04   -0.94587E-07   -0.23847E-09  3072   0.452E-05    0.300E-05
DAV:  19    -0.137900628824E+04   -0.49709E-07   -0.20870E-09  3072   0.450E-05    0.194E-05
DAV:  20    -0.137900628825E+04   -0.14334E-07   -0.81834E-10  3136   0.324E-05    0.184E-05
DAV:  21    -0.137900628826E+04   -0.82946E-08   -0.49508E-10  3008   0.256E-05
  11 F= -.13982884E+04 E0= -.13982884E+04  d E =0.293832E-04  mag=     0.0000
       N       E                     dE             d eps       ncg     rms          rms(c)
DAV:   1    -0.137900545783E+04    0.83042E-03   -0.61842E-02  5248   0.133E-01    0.777E-02
DAV:   2    -0.137900549764E+04   -0.39817E-04   -0.46967E-04  5600   0.183E-02    0.445E-02
DAV:   3    -0.137900552180E+04   -0.24161E-04   -0.57323E-05  5632   0.782E-03    0.137E-02
DAV:   4    -0.137900552335E+04   -0.15408E-05   -0.23587E-05  6432   0.579E-03    0.548E-03
DAV:   5    -0.137900552311E+04    0.24070E-06   -0.33808E-06  6336   0.210E-03    0.202E-03
DAV:   6    -0.137900552386E+04   -0.75354E-06   -0.82197E-07  4864   0.953E-04    0.115E-03
DAV:   7    -0.137900552431E+04   -0.45169E-06   -0.13137E-07  5568   0.523E-04    0.541E-04
DAV:   8    -0.137900552484E+04   -0.52621E-06   -0.71925E-08  4672   0.317E-04    0.288E-04
DAV:   9    -0.137900552536E+04   -0.52623E-06   -0.32046E-08  4192   0.200E-04    0.167E-04
DAV:  10    -0.137900552585E+04   -0.48286E-06   -0.29125E-08  4224   0.161E-04    0.118E-04
DAV:  11    -0.137900552616E+04   -0.31637E-06   -0.15632E-08  3904   0.126E-04    0.694E-05
DAV:  12    -0.137900552636E+04   -0.20233E-06   -0.94007E-09  3584   0.104E-04    0.711E-05
DAV:  13    -0.137900552648E+04   -0.11880E-06   -0.59286E-09  3264   0.987E-05    0.460E-05
DAV:  14    -0.137900552657E+04   -0.87151E-07   -0.68957E-09  3328   0.111E-04    0.302E-05
DAV:  15    -0.137900552659E+04   -0.21013E-07   -0.24566E-09  3008   0.752E-05    0.283E-05
DAV:  16    -0.137900552663E+04   -0.36453E-07   -0.14798E-09  3008   0.466E-05    0.187E-05
DAV:  17    -0.137900552664E+04   -0.11729E-07   -0.47910E-10  2944   0.282E-05    0.183E-05
DAV:  18    -0.137900552664E+04   -0.45984E-08   -0.68887E-11  2944   0.183E-05
  12 F= -.13982877E+04 E0= -.13982877E+04  d E =0.690687E-03  mag=     0.0000
       N       E                     dE             d eps       ncg     rms          rms(c)
DAV:   1    -0.137900601480E+04   -0.48816E-03   -0.61245E-02  5216   0.132E-01    0.708E-02
DAV:   2    -0.137900606783E+04   -0.53029E-04   -0.37332E-04  5536   0.165E-02    0.426E-02
DAV:   3    -0.137900609908E+04   -0.31243E-04   -0.40162E-05  5808   0.743E-03    0.906E-03
DAV:   4    -0.137900609971E+04   -0.63410E-06   -0.72820E-06  6528   0.358E-03    0.271E-03
DAV:   5    -0.137900610008E+04   -0.36864E-06   -0.62845E-07  5760   0.100E-03    0.157E-03
DAV:   6    -0.137900610056E+04   -0.48433E-06   -0.25768E-07  5344   0.705E-04    0.812E-04
DAV:   7    -0.137900610105E+04   -0.48852E-06   -0.83905E-08  5248   0.456E-04    0.405E-04
DAV:   8    -0.137900610153E+04   -0.47719E-06   -0.48394E-08  4768   0.305E-04    0.252E-04
DAV:   9    -0.137900610196E+04   -0.42835E-06   -0.19832E-08  4032   0.199E-04    0.148E-04
DAV:  10    -0.137900610238E+04   -0.42173E-06   -0.24561E-08  4128   0.189E-04    0.113E-04
DAV:  11    -0.137900610260E+04   -0.22675E-06   -0.97909E-09  3680   0.113E-04    0.690E-05
DAV:  12    -0.137900610278E+04   -0.17475E-06   -0.69124E-09  3328   0.869E-05    0.514E-05
DAV:  13    -0.137900610287E+04   -0.85653E-07   -0.34786E-09  3168   0.626E-05    0.493E-05
DAV:  14    -0.137900610292E+04   -0.58208E-07   -0.22991E-09  3072   0.576E-05    0.257E-05
DAV:  15    -0.137900610296E+04   -0.32189E-07   -0.18528E-09  3072   0.511E-05    0.310E-05
DAV:  16    -0.137900610297E+04   -0.15832E-07   -0.70577E-10  3072   0.339E-05    0.258E-05
DAV:  17    -0.137900610298E+04   -0.10230E-07   -0.49082E-10  3072   0.330E-05    0.147E-05
DAV:  18    -0.137900610298E+04   -0.24884E-08   -0.15511E-10  3008   0.234E-05
  13 F= -.13982880E+04 E0= -.13982880E+04  d E =-.267549E-03  mag=    -0.0000
       N       E                     dE             d eps       ncg     rms          rms(c)
DAV:   1    -0.137900563150E+04    0.47148E-03   -0.74875E-02  5248   0.170E-01    0.117E-01
DAV:   2    -0.137900555862E+04    0.72884E-04   -0.14908E-03  5568   0.331E-02    0.663E-02
DAV:   3    -0.137900554536E+04    0.13258E-04   -0.47802E-04  5584   0.173E-02    0.263E-02
DAV:   4    -0.137900553821E+04    0.71501E-05   -0.74043E-05  5664   0.853E-03    0.126E-02
DAV:   5    -0.137900553952E+04   -0.13053E-05   -0.88449E-06  5664   0.316E-03    0.315E-03
DAV:   6    -0.137900553969E+04   -0.17464E-06   -0.13062E-06  5264   0.108E-03    0.168E-03
DAV:   7    -0.137900554009E+04   -0.39360E-06   -0.57816E-07  4832   0.821E-04    0.865E-04
DAV:   8    -0.137900554039E+04   -0.30090E-06   -0.90703E-08  5248   0.374E-04    0.415E-04
DAV:   9    -0.137900554081E+04   -0.42612E-06   -0.37367E-08  4384   0.264E-04    0.213E-04
DAV:  10    -0.137900554118E+04   -0.36952E-06   -0.20236E-08  3936   0.193E-04    0.147E-04
DAV:  11    -0.137900554158E+04   -0.39241E-06   -0.21795E-08  4128   0.179E-04    0.986E-05
DAV:  12    -0.137900554176E+04   -0.18855E-06   -0.69582E-09  3584   0.887E-05    0.761E-05
DAV:  13    -0.137900554195E+04   -0.18381E-06   -0.73961E-09  3456   0.801E-05    0.477E-05
DAV:  14    -0.137900554203E+04   -0.83775E-07   -0.24689E-09  3072   0.497E-05    0.444E-05
DAV:  15    -0.137900554210E+04   -0.70198E-07   -0.25122E-09  3104   0.459E-05    0.212E-05
DAV:  16    -0.137900554214E+04   -0.34008E-07   -0.11918E-09  3072   0.388E-05    0.195E-05
DAV:  17    -0.137900554216E+04   -0.21319E-07   -0.71880E-10  3072   0.322E-05    0.149E-05
DAV:  18    -0.137900554217E+04   -0.14494E-07   -0.47465E-10  3072   0.316E-05    0.135E-05
DAV:  19    -0.137900554218E+04   -0.63155E-08   -0.85730E-11  3072   0.189E-05
  14 F= -.13982876E+04 E0= -.13982876E+04  d E =0.367548E-03  mag=    -0.0000
       N       E                     dE             d eps       ncg     rms          rms(c)
DAV:   1    -0.137900608953E+04   -0.54736E-03   -0.86264E-02  4544   0.149E-01    0.142E-01
DAV:   2    -0.137900587583E+04    0.21370E-03   -0.17929E-03  4448   0.249E-02    0.807E-02
DAV:   3    -0.137900582314E+04    0.52700E-04   -0.98830E-04  4608   0.176E-02    0.290E-02
DAV:   4    -0.137900580389E+04    0.19247E-04   -0.11017E-04  4512   0.609E-03    0.170E-02
DAV:   5    -0.137900580256E+04    0.13233E-05   -0.28228E-05  5600   0.335E-03    0.301E-03
DAV:   6    -0.137900580281E+04   -0.24460E-06   -0.20362E-06  4512   0.891E-04    0.122E-03
DAV:   7    -0.137900580317E+04   -0.36451E-06   -0.36417E-07  4960   0.372E-04    0.860E-04
DAV:   8    -0.137900580352E+04   -0.34682E-06   -0.40590E-08  3936   0.182E-04    0.410E-04
DAV:   9    -0.137900580400E+04   -0.48138E-06   -0.38975E-08  3904   0.129E-04    0.215E-04
DAV:  10    -0.137900580442E+04   -0.41514E-06   -0.14500E-08  3776   0.921E-05    0.130E-04
DAV:  11    -0.137900580487E+04   -0.45753E-06   -0.22576E-08  3936   0.106E-04    0.760E-05
DAV:  12    -0.137900580512E+04   -0.24919E-06   -0.10811E-08  3680   0.945E-05    0.638E-05
DAV:  13    -0.137900580529E+04   -0.16108E-06   -0.63374E-09  3424   0.765E-05    0.410E-05
DAV:  14    -0.137900580539E+04   -0.10936E-06   -0.40041E-09  3232   0.618E-05    0.227E-05
DAV:  15    -0.137900580546E+04   -0.70271E-07   -0.27423E-09  3136   0.528E-05    0.200E-05
DAV:  16    -0.137900580549E+04   -0.27911E-07   -0.12979E-09  3072   0.436E-05    0.138E-05
DAV:  17    -0.137900580552E+04   -0.25946E-07   -0.80883E-10  3072   0.348E-05    0.931E-06
DAV:  18    -0.137900580553E+04   -0.94587E-08   -0.23677E-10  3072   0.224E-05
  15 F= -.13982880E+04 E0= -.13982880E+04  d E =-.314343E-03  mag=    -0.0000
       N       E                     dE             d eps       ncg     rms          rms(c)
DAV:   1    -0.137900634556E+04   -0.54004E-03   -0.73257E-02  4480   0.141E-01    0.805E-02
DAV:   2    -0.137900635537E+04   -0.98103E-05   -0.47935E-04  4448   0.112E-02    0.481E-02
DAV:   3    -0.137900635586E+04   -0.49040E-06   -0.95315E-05  4592   0.574E-03    0.725E-03
DAV:   4    -0.137900635510E+04    0.75427E-06   -0.10020E-05  4544   0.194E-03    0.411E-03
DAV:   5    -0.137900635518E+04   -0.77052E-07   -0.36663E-06  4560   0.120E-03    0.129E-03
DAV:   6    -0.137900635544E+04   -0.25851E-06   -0.37280E-07  4288   0.418E-04    0.730E-04
DAV:   7    -0.137900635585E+04   -0.41300E-06   -0.85087E-08  4064   0.201E-04    0.249E-04
DAV:   8    -0.137900635616E+04   -0.30827E-06   -0.18130E-08  3808   0.960E-05    0.180E-04
DAV:   9    -0.137900635665E+04   -0.48484E-06   -0.20056E-08  3872   0.101E-04    0.986E-05
DAV:  10    -0.137900635698E+04   -0.33823E-06   -0.14364E-08  3808   0.107E-04    0.652E-05
DAV:  11    -0.137900635720E+04   -0.21643E-06   -0.99094E-09  3648   0.122E-04    0.555E-05
DAV:  12    -0.137900635735E+04   -0.14668E-06   -0.78389E-09  3488   0.114E-04    0.323E-05
DAV:  13    -0.137900635743E+04   -0.85667E-07   -0.39936E-09  3200   0.740E-05    0.216E-05
DAV:  14    -0.137900635748E+04   -0.50568E-07   -0.26247E-09  3072   0.574E-05    0.185E-05
DAV:  15    -0.137900635750E+04   -0.13693E-07   -0.11859E-09  3072   0.428E-05    0.117E-05
DAV:  16    -0.137900635751E+04   -0.89058E-08   -0.56688E-10  3040   0.248E-05
  16 F= -.13982884E+04 E0= -.13982884E+04  d E =-.424445E-03  mag=    -0.0000
       N       E                     dE             d eps       ncg     rms          rms(c)
DAV:   1    -0.137900619637E+04    0.16113E-03   -0.73788E-02  4416   0.174E-01    0.826E-02
DAV:   2    -0.137900621277E+04   -0.16400E-04   -0.58593E-04  4672   0.147E-02    0.504E-02
DAV:   3    -0.137900621485E+04   -0.20793E-05   -0.12694E-04  5312   0.747E-03    0.898E-03
DAV:   4    -0.137900621369E+04    0.11593E-05   -0.11649E-05  4832   0.238E-03    0.597E-03
DAV:   5    -0.137900621375E+04   -0.59590E-07   -0.81215E-06  4672   0.193E-03    0.160E-03
DAV:   6    -0.137900621403E+04   -0.28266E-06   -0.99199E-07  4416   0.743E-04    0.860E-04
DAV:   7    -0.137900621439E+04   -0.35961E-06   -0.13002E-07  4560   0.279E-04    0.449E-04
DAV:   8    -0.137900621484E+04   -0.45073E-06   -0.32914E-08  3872   0.168E-04    0.240E-04
DAV:   9    -0.137900621527E+04   -0.43221E-06   -0.21307E-08  3968   0.124E-04    0.132E-04
DAV:  10    -0.137900621568E+04   -0.40483E-06   -0.20551E-08  3904   0.119E-04    0.926E-05
DAV:  11    -0.137900621584E+04   -0.15595E-06   -0.54662E-09  3296   0.845E-05    0.742E-05
DAV:  12    -0.137900621599E+04   -0.15261E-06   -0.62653E-09  3488   0.863E-05    0.333E-05
DAV:  13    -0.137900621607E+04   -0.79148E-07   -0.39955E-09  3168   0.836E-05    0.272E-05
DAV:  14    -0.137900621612E+04   -0.48312E-07   -0.20047E-09  3072   0.557E-05    0.216E-05
DAV:  15    -0.137900621615E+04   -0.37457E-07   -0.14414E-09  3072   0.432E-05    0.157E-05
DAV:  16    -0.137900621617E+04   -0.14552E-07   -0.48532E-10  3072   0.269E-05    0.833E-06
DAV:  17    -0.137900621618E+04   -0.94296E-08   -0.23484E-10  3008   0.206E-05
  17 F= -.13982884E+04 E0= -.13982884E+04  d E =0.327547E-04  mag=     0.0000
       N       E                     dE             d eps       ncg     rms          rms(c)
DAV:   1    -0.137900600033E+04    0.21584E-03   -0.76861E-02  4416   0.178E-01    0.105E-01
DAV:   2    -0.137900592381E+04    0.76525E-04   -0.85275E-04  4576   0.193E-02    0.610E-02
DAV:   3    -0.137900590983E+04    0.13977E-04   -0.45052E-04  4704   0.129E-02    0.198E-02
DAV:   4    -0.137900590133E+04    0.85018E-05   -0.52052E-05  4480   0.446E-03    0.127E-02
DAV:   5    -0.137900590085E+04    0.47423E-06   -0.16727E-05  5376   0.246E-03    0.264E-03
DAV:   6    -0.137900590121E+04   -0.35240E-06   -0.14187E-06  4608   0.768E-04    0.102E-03
DAV:   7    -0.137900590177E+04   -0.56680E-06   -0.33545E-07  5312   0.361E-04    0.838E-04
DAV:   8    -0.137900590233E+04   -0.55898E-06   -0.55458E-08  4032   0.167E-04    0.323E-04
DAV:   9    -0.137900590297E+04   -0.63874E-06   -0.45859E-08  4000   0.123E-04    0.234E-04
DAV:  10    -0.137900590355E+04   -0.58496E-06   -0.21648E-08  4000   0.101E-04    0.110E-04
DAV:  11    -0.137900590405E+04   -0.49126E-06   -0.23845E-08  3936   0.110E-04    0.951E-05
DAV:  12    -0.137900590434E+04   -0.29130E-06   -0.10871E-08  3776   0.949E-05    0.642E-05
DAV:  13    -0.137900590453E+04   -0.19539E-06   -0.72912E-09  3520   0.789E-05    0.360E-05
DAV:  14    -0.137900590463E+04   -0.97978E-07   -0.32093E-09  3168   0.656E-05    0.237E-05
DAV:  15    -0.137900590471E+04   -0.79308E-07   -0.36480E-09  3168   0.564E-05    0.200E-05
DAV:  16    -0.137900590473E+04   -0.18656E-07   -0.10769E-09  3136   0.415E-05    0.159E-05
DAV:  17    -0.137900590474E+04   -0.10899E-07   -0.56656E-10  3072   0.308E-05    0.957E-06
DAV:  18    -0.137900590475E+04   -0.64902E-08   -0.18084E-10  3072   0.199E-05
  18 F= -.13982881E+04 E0= -.13982881E+04  d E =0.284255E-03  mag=     0.0000
       N       E                     dE             d eps       ncg     rms          rms(c)
DAV:   1    -0.137900582843E+04    0.76308E-04   -0.71730E-02  4416   0.173E-01    0.766E-02
DAV:   2    -0.137900584734E+04   -0.18907E-04   -0.45778E-04  4864   0.127E-02    0.463E-02
DAV:   3    -0.137900584755E+04   -0.21188E-06   -0.69661E-05  4960   0.555E-03    0.528E-03
DAV:   4    -0.137900584763E+04   -0.80167E-07   -0.70295E-06  5120   0.179E-03    0.317E-03
DAV:   5    -0.137900584784E+04   -0.20552E-06   -0.17086E-06  5152   0.103E-03    0.116E-03
DAV:   6    -0.137900584816E+04   -0.32451E-06   -0.22865E-07  4672   0.401E-04    0.658E-04
DAV:   7    -0.137900584855E+04   -0.39009E-06   -0.51464E-08  3968   0.212E-04    0.291E-04
DAV:   8    -0.137900584894E+04   -0.38657E-06   -0.23249E-08  4032   0.160E-04    0.182E-04
DAV:   9    -0.137900584939E+04   -0.45515E-06   -0.20724E-08  3872   0.146E-04    0.102E-04
DAV:  10    -0.137900584967E+04   -0.27678E-06   -0.12925E-08  3808   0.115E-04    0.697E-05
DAV:  11    -0.137900584985E+04   -0.17950E-06   -0.63388E-09  3424   0.874E-05    0.501E-05
DAV:  12    -0.137900584998E+04   -0.12938E-06   -0.59216E-09  3488   0.825E-05    0.357E-05
DAV:  13    -0.137900585006E+04   -0.77678E-07   -0.33882E-09  3104   0.660E-05    0.192E-05
DAV:  14    -0.137900585010E+04   -0.44340E-07   -0.24887E-09  3072   0.475E-05    0.154E-05
DAV:  15    -0.137900585012E+04   -0.19805E-07   -0.12602E-09  3072   0.403E-05    0.108E-05
DAV:  16    -0.137900585013E+04   -0.10798E-07   -0.81398E-10  3072   0.291E-05    0.768E-06
DAV:  17    -0.137900585014E+04   -0.54133E-08   -0.26114E-10  3136   0.183E-05
  19 F= -.13982880E+04 E0= -.13982880E+04  d E =0.858424E-04  mag=     0.0000
       N       E                     dE             d eps       ncg     rms          rms(c)
DAV:   1    -0.137900576898E+04    0.81148E-04   -0.80179E-02  4448   0.180E-01    0.119E-01
DAV:   2    -0.137900567301E+04    0.95968E-04   -0.13576E-03  4736   0.249E-02    0.703E-02
DAV:   3    -0.137900564239E+04    0.30622E-04   -0.75648E-04  4800   0.169E-02    0.253E-02
DAV:   4    -0.137900562866E+04    0.13729E-04   -0.92965E-05  4608   0.580E-03    0.168E-02
DAV:   5    -0.137900562661E+04    0.20499E-05   -0.27450E-05  4992   0.322E-03    0.402E-03
DAV:   6    -0.137900562658E+04    0.35288E-07   -0.32165E-06  4864   0.117E-03    0.119E-03
DAV:   7    -0.137900562678E+04   -0.20710E-06   -0.52718E-07  5024   0.496E-04    0.104E-03
DAV:   8    -0.137900562701E+04   -0.22716E-06   -0.66874E-08  4192   0.246E-04    0.424E-04
DAV:   9    -0.137900562724E+04   -0.23218E-06   -0.56474E-08  4000   0.204E-04    0.281E-04
DAV:  10    -0.137900562747E+04   -0.22918E-06   -0.13087E-08  3680   0.132E-04    0.152E-04
DAV:  11    -0.137900562764E+04   -0.17101E-06   -0.11610E-08  3840   0.119E-04    0.756E-05
DAV:  12    -0.137900562776E+04   -0.11543E-06   -0.73595E-09  3536   0.995E-05    0.672E-05
DAV:  13    -0.137900562784E+04   -0.78668E-07   -0.50532E-09  3296   0.883E-05    0.370E-05
DAV:  14    -0.137900562788E+04   -0.37646E-07   -0.33153E-09  3136   0.752E-05    0.239E-05
DAV:  15    -0.137900562790E+04   -0.25379E-07   -0.22523E-09  3072   0.568E-05    0.209E-05
DAV:  16    -0.137900562791E+04   -0.12500E-07   -0.10258E-09  3072   0.339E-05    0.116E-05
DAV:  17    -0.137900562792E+04   -0.77707E-08   -0.52157E-10  3072   0.262E-05
  20 F= -.13982878E+04 E0= -.13982878E+04  d E =0.175273E-03  mag=     0.0000
       N       E                     dE             d eps       ncg     rms          rms(c)
DAV:   1    -0.137900630224E+04   -0.67433E-03   -0.84456E-02  4448   0.152E-01    0.137E-01
DAV:   2    -0.137900610701E+04    0.19524E-03   -0.15964E-03  4336   0.240E-02    0.780E-02
DAV:   3    -0.137900606356E+04    0.43450E-04   -0.95128E-04  4704   0.178E-02    0.288E-02
DAV:   4    -0.137900604507E+04    0.18488E-04   -0.99647E-05  4384   0.596E-03    0.174E-02
DAV:   5    -0.137900604387E+04    0.12029E-05   -0.31720E-05  5408   0.332E-03    0.283E-03
DAV:   6    -0.137900604382E+04    0.44398E-07   -0.19332E-06  4256   0.863E-04    0.124E-03
DAV:   7    -0.137900604387E+04   -0.43394E-07   -0.27583E-07  4896   0.298E-04    0.893E-04
DAV:   8    -0.137900604394E+04   -0.73705E-07   -0.41611E-08  3840   0.176E-04    0.290E-04
DAV:   9    -0.137900604403E+04   -0.89683E-07   -0.21374E-08  3936   0.134E-04    0.176E-04
DAV:  10    -0.137900604415E+04   -0.12209E-06   -0.76295E-09  3488   0.984E-05    0.823E-05
DAV:  11    -0.137900604424E+04   -0.87733E-07   -0.58649E-09  3488   0.859E-05    0.596E-05
DAV:  12    -0.137900604433E+04   -0.86860E-07   -0.62485E-09  3424   0.967E-05    0.403E-05
DAV:  13    -0.137900604438E+04   -0.50873E-07   -0.44612E-09  3328   0.786E-05    0.314E-05
DAV:  14    -0.137900604440E+04   -0.28522E-07   -0.18914E-09  3072   0.529E-05    0.187E-05
DAV:  15    -0.137900604444E+04   -0.31985E-07   -0.19558E-09  3136   0.444E-05    0.172E-05
DAV:  16    -0.137900604444E+04   -0.82655E-08   -0.58089E-10  2944   0.312E-05
  21 F= -.13982882E+04 E0= -.13982882E+04  d E =-.417480E-03  mag=     0.0000
       N       E                     dE             d eps       ncg     rms          rms(c)
DAV:   1    -0.137900644894E+04   -0.40450E-03   -0.72693E-02  4416   0.143E-01    0.792E-02
DAV:   2    -0.137900646381E+04   -0.14868E-04   -0.47149E-04  4512   0.115E-02    0.477E-02
DAV:   3    -0.137900646403E+04   -0.21936E-06   -0.84937E-05  4544   0.574E-03    0.641E-03
DAV:   4    -0.137900646377E+04    0.25245E-06   -0.89604E-06  4512   0.185E-03    0.393E-03
DAV:   5    -0.137900646386E+04   -0.87355E-07   -0.34461E-06  4512   0.121E-03    0.123E-03
DAV:   6    -0.137900646412E+04   -0.26033E-06   -0.39091E-07  4288   0.442E-04    0.712E-04
DAV:   7    -0.137900646461E+04   -0.48817E-06   -0.93154E-08  4096   0.235E-04    0.247E-04
DAV:   8    -0.137900646495E+04   -0.34196E-06   -0.22564E-08  3904   0.146E-04    0.181E-04
DAV:   9    -0.137900646549E+04   -0.53846E-06   -0.34867E-08  4064   0.208E-04    0.107E-04
DAV:  10    -0.137900646585E+04   -0.36052E-06   -0.50192E-08  4128   0.317E-04    0.730E-05
DAV:  11    -0.137900646604E+04   -0.19011E-06   -0.30985E-08  4128   0.260E-04    0.641E-05
DAV:  12    -0.137900646619E+04   -0.15400E-06   -0.14430E-08  3872   0.173E-04    0.383E-05
DAV:  13    -0.137900646630E+04   -0.10831E-06   -0.62661E-09  3392   0.104E-04    0.277E-05
DAV:  14    -0.137900646636E+04   -0.52489E-07   -0.18400E-09  3104   0.518E-05    0.192E-05
DAV:  15    -0.137900646638E+04   -0.27270E-07   -0.10724E-09  3072   0.407E-05    0.125E-05
DAV:  16    -0.137900646639E+04   -0.77562E-08   -0.32043E-10  3072   0.237E-05
  22 F= -.13982885E+04 E0= -.13982885E+04  d E =-.235050E-03  mag=    -0.0000
       N       E                     dE             d eps       ncg     rms          rms(c)
DAV:   1    -0.137900586798E+04    0.59840E-03   -0.76265E-02  4448   0.175E-01    0.991E-02
DAV:   2    -0.137900583641E+04    0.31569E-04   -0.88908E-04  4672   0.191E-02    0.601E-02
DAV:   3    -0.137900582110E+04    0.15319E-04   -0.43203E-04  4736   0.125E-02    0.199E-02
DAV:   4    -0.137900581301E+04    0.80890E-05   -0.45477E-05  4480   0.417E-03    0.128E-02
DAV:   5    -0.137900581157E+04    0.14332E-05   -0.21917E-05  4512   0.271E-03    0.224E-03
DAV:   6    -0.137900581195E+04   -0.37537E-06   -0.13033E-06  4384   0.735E-04    0.113E-03
DAV:   7    -0.137900581245E+04   -0.49744E-06   -0.31413E-07  4608   0.348E-04    0.737E-04
DAV:   8    -0.137900581296E+04   -0.51272E-06   -0.65114E-08  3968   0.181E-04    0.306E-04
DAV:   9    -0.137900581351E+04   -0.55046E-06   -0.35578E-08  3968   0.128E-04    0.180E-04
DAV:  10    -0.137900581413E+04   -0.62196E-06   -0.30470E-08  3904   0.144E-04    0.101E-04
DAV:  11    -0.137900581448E+04   -0.34897E-06   -0.21983E-08  4032   0.174E-04    0.626E-05
DAV:  12    -0.137900581475E+04   -0.27058E-06   -0.25217E-08  4000   0.220E-04    0.490E-05
DAV:  13    -0.137900581489E+04   -0.14229E-06   -0.16353E-08  3936   0.188E-04    0.378E-05
DAV:  14    -0.137900581498E+04   -0.88199E-07   -0.52048E-09  3232   0.106E-04    0.212E-05
DAV:  15    -0.137900581505E+04   -0.63985E-07   -0.29722E-09  3152   0.685E-05    0.164E-05
DAV:  16    -0.137900581507E+04   -0.24505E-07   -0.60259E-10  3040   0.353E-05    0.117E-05
DAV:  17    -0.137900581509E+04   -0.23982E-07   -0.42302E-10  3008   0.265E-05    0.109E-05
DAV:  18    -0.137900581510E+04   -0.48167E-08   -0.10784E-11  3072   0.176E-05
  23 F= -.13982880E+04 E0= -.13982880E+04  d E =0.426416E-03  mag=    -0.0000
       N       E                     dE             d eps       ncg     rms          rms(c)
DAV:   1    -0.137900582596E+04   -0.10868E-04   -0.84953E-02  4544   0.180E-01    0.139E-01
DAV:   2    -0.137900563677E+04    0.18919E-03   -0.16350E-03  4864   0.274E-02    0.785E-02
DAV:   3    -0.137900559283E+04    0.43936E-04   -0.94773E-04  4864   0.179E-02    0.287E-02
DAV:   4    -0.137900557591E+04    0.16920E-04   -0.99058E-05  4608   0.600E-03    0.184E-02
DAV:   5    -0.137900557422E+04    0.16943E-05   -0.28297E-05  5376   0.317E-03    0.397E-03
DAV:   6    -0.137900557405E+04    0.16858E-06   -0.31146E-06  4512   0.111E-03    0.124E-03
DAV:   7    -0.137900557424E+04   -0.19305E-06   -0.51395E-07  5280   0.430E-04    0.109E-03
DAV:   8    -0.137900557449E+04   -0.24762E-06   -0.50740E-08  4064   0.181E-04    0.428E-04
DAV:   9    -0.137900557478E+04   -0.29131E-06   -0.43406E-08  4000   0.134E-04    0.233E-04
DAV:  10    -0.137900557507E+04   -0.28330E-06   -0.89138E-09  3552   0.802E-05    0.131E-04
DAV:  11    -0.137900557538E+04   -0.31242E-06   -0.13735E-08  3776   0.893E-05    0.736E-05
DAV:  12    -0.137900557562E+04   -0.23826E-06   -0.11227E-08  3616   0.104E-04    0.575E-05
DAV:  13    -0.137900557574E+04   -0.12705E-06   -0.67013E-09  3392   0.981E-05    0.435E-05
DAV:  14    -0.137900557582E+04   -0.73182E-07   -0.40669E-09  3104   0.823E-05    0.256E-05
DAV:  15    -0.137900557588E+04   -0.64567E-07   -0.40435E-09  3168   0.675E-05    0.260E-05
DAV:  16    -0.137900557590E+04   -0.17812E-07   -0.10273E-09  3072   0.398E-05    0.212E-05
DAV:  17    -0.137900557591E+04   -0.12471E-07   -0.66667E-10  3040   0.300E-05    0.134E-05
DAV:  18    -0.137900557591E+04   -0.15862E-08   -0.16297E-10  3040   0.205E-05
  24 F= -.13982877E+04 E0= -.13982877E+04  d E =0.351061E-03  mag=    -0.0000
       N       E                     dE             d eps       ncg     rms          rms(c)
DAV:   1    -0.137900654873E+04   -0.97282E-03   -0.80031E-02  4672   0.174E-01    0.119E-01
DAV:   2    -0.137900643136E+04    0.11737E-03   -0.11186E-03  4768   0.221E-02    0.678E-02
DAV:   3    -0.137900640624E+04    0.25123E-04   -0.62542E-04  4960   0.145E-02    0.231E-02
DAV:   4    -0.137900639490E+04    0.11335E-04   -0.68442E-05  4576   0.496E-03    0.148E-02
DAV:   5    -0.137900639374E+04    0.11570E-05   -0.21199E-05  5312   0.277E-03    0.316E-03
DAV:   6    -0.137900639368E+04    0.63650E-07   -0.21525E-06  4560   0.906E-04    0.120E-03
DAV:   7    -0.137900639378E+04   -0.10076E-06   -0.34872E-07  5216   0.348E-04    0.104E-03
DAV:   8    -0.137900639385E+04   -0.66677E-07   -0.45849E-08  3856   0.151E-04    0.348E-04
DAV:   9    -0.137900639392E+04   -0.70402E-07   -0.31147E-08  3968   0.125E-04    0.200E-04
DAV:  10    -0.137900639396E+04   -0.45839E-07   -0.41420E-09  3232   0.713E-05    0.910E-05
DAV:  11    -0.137900639402E+04   -0.52154E-07   -0.39386E-09  3264   0.664E-05    0.508E-05
DAV:  12    -0.137900639405E+04   -0.36263E-07   -0.26416E-09  3072   0.704E-05    0.367E-05
DAV:  13    -0.137900639409E+04   -0.39450E-07   -0.26669E-09  3104   0.561E-05    0.247E-05
DAV:  14    -0.137900639411E+04   -0.15076E-07   -0.77970E-10  2944   0.352E-05    0.172E-05
DAV:  15    -0.137900639413E+04   -0.25742E-07   -0.14893E-09  3008   0.406E-05    0.177E-05
DAV:  16    -0.137900639414E+04   -0.78580E-08   -0.54450E-10  2944   0.301E-05
  25 F= -.13982884E+04 E0= -.13982884E+04  d E =-.748029E-03  mag=     0.0000
       N       E                     dE             d eps       ncg     rms          rms(c)
DAV:   1    -0.137900548278E+04    0.91136E-03   -0.78399E-02  4432   0.185E-01    0.109E-01
DAV:   2    -0.137900544178E+04    0.40999E-04   -0.13304E-03  4608   0.239E-02    0.663E-02
DAV:   3    -0.137900541958E+04    0.22199E-04   -0.59831E-04  4736   0.150E-02    0.236E-02
DAV:   4    -0.137900540816E+04    0.11414E-04   -0.66961E-05  4608   0.507E-03    0.147E-02
DAV:   5    -0.137900540677E+04    0.13954E-05   -0.26223E-05  4704   0.304E-03    0.231E-03
DAV:   6    -0.137900540692E+04   -0.14913E-06   -0.12849E-06  4480   0.786E-04    0.114E-03
DAV:   7    -0.137900540708E+04   -0.16506E-06   -0.25617E-07  4560   0.335E-04    0.564E-04
DAV:   8    -0.137900540728E+04   -0.20092E-06   -0.33296E-08  4016   0.172E-04    0.315E-04
DAV:   9    -0.137900540755E+04   -0.26268E-06   -0.18690E-08  3936   0.133E-04    0.146E-04
DAV:  10    -0.137900540781E+04   -0.26652E-06   -0.15331E-08  3744   0.118E-04    0.139E-04
DAV:  11    -0.137900540803E+04   -0.21573E-06   -0.87554E-09  3488   0.950E-05    0.887E-05
DAV:  12    -0.137900540818E+04   -0.15259E-06   -0.77998E-09  3600   0.890E-05    0.421E-05
DAV:  13    -0.137900540828E+04   -0.10306E-06   -0.59655E-09  3264   0.935E-05    0.399E-05
DAV:  14    -0.137900540834E+04   -0.59517E-07   -0.50371E-09  3152   0.924E-05    0.240E-05
DAV:  15    -0.137900540837E+04   -0.30152E-07   -0.23362E-09  3072   0.563E-05    0.121E-05
DAV:  16    -0.137900540839E+04   -0.16953E-07   -0.85354E-10  3072   0.287E-05    0.106E-05
DAV:  17    -0.137900540840E+04   -0.10390E-07   -0.40640E-10  3072   0.228E-05    0.814E-06
DAV:  18    -0.137900540840E+04   -0.19354E-08   -0.52109E-11  2944   0.145E-05
  26 F= -.13982876E+04 E0= -.13982876E+04  d E =0.873216E-03  mag=    -0.0000
       N       E                     dE             d eps       ncg     rms          rms(c)
DAV:   1    -0.137900605822E+04   -0.64981E-03   -0.74003E-02  4384   0.173E-01    0.862E-02
DAV:   2    -0.137900605793E+04    0.28711E-06   -0.58106E-04  4224   0.146E-02    0.520E-02
DAV:   3    -0.137900605505E+04    0.28757E-05   -0.19612E-04  4384   0.844E-03    0.129E-02
DAV:   4    -0.137900605176E+04    0.32924E-05   -0.18761E-05  4288   0.274E-03    0.838E-03
DAV:   5    -0.137900605125E+04    0.50853E-06   -0.13596E-05  4384   0.206E-03    0.160E-03
DAV:   6    -0.137900605152E+04   -0.27264E-06   -0.79224E-07  4192   0.565E-04    0.898E-04
DAV:   7    -0.137900605197E+04   -0.44244E-06   -0.91366E-08  4160   0.215E-04    0.463E-04
DAV:   8    -0.137900605250E+04   -0.53625E-06   -0.54958E-08  4064   0.177E-04    0.222E-04
DAV:   9    -0.137900605296E+04   -0.46176E-06   -0.34714E-08  4096   0.150E-04    0.181E-04
DAV:  10    -0.137900605332E+04   -0.35368E-06   -0.16953E-08  3872   0.110E-04    0.928E-05
DAV:  11    -0.137900605352E+04   -0.20285E-06   -0.86061E-09  3488   0.875E-05    0.518E-05
DAV:  12    -0.137900605368E+04   -0.15741E-06   -0.64943E-09  3344   0.860E-05    0.403E-05
DAV:  13    -0.137900605378E+04   -0.97876E-07   -0.49208E-09  3136   0.761E-05    0.234E-05
DAV:  14    -0.137900605382E+04   -0.38723E-07   -0.22839E-09  3072   0.509E-05    0.142E-05
DAV:  15    -0.137900605385E+04   -0.34328E-07   -0.15436E-09  3072   0.380E-05    0.108E-05
DAV:  16    -0.137900605386E+04   -0.10565E-07   -0.67291E-10  3072   0.279E-05    0.957E-06
DAV:  17    -0.137900605387E+04   -0.57771E-08   -0.19640E-10  2944   0.175E-05
  27 F= -.13982882E+04 E0= -.13982882E+04  d E =-.616037E-03  mag=    -0.0000
       N       E                     dE             d eps       ncg     rms          rms(c)
DAV:   1    -0.137900641459E+04   -0.36073E-03   -0.72652E-02  4384   0.172E-01    0.780E-02
DAV:   2    -0.137900643637E+04   -0.21782E-04   -0.49345E-04  4352   0.129E-02    0.473E-02
DAV:   3    -0.137900643797E+04   -0.16053E-05   -0.68015E-05  4608   0.525E-03    0.499E-03
DAV:   4    -0.137900643808E+04   -0.10795E-06   -0.63347E-06  4416   0.154E-03    0.301E-03
DAV:   5    -0.137900643825E+04   -0.16575E-06   -0.19302E-06  4512   0.986E-04    0.101E-03
DAV:   6    -0.137900643857E+04   -0.32423E-06   -0.24568E-07  4224   0.338E-04    0.599E-04
DAV:   7    -0.137900643910E+04   -0.52711E-06   -0.74833E-08  4064   0.188E-04    0.238E-04
DAV:   8    -0.137900643944E+04   -0.34431E-06   -0.16096E-08  3872   0.103E-04    0.180E-04
DAV:   9    -0.137900644003E+04   -0.59068E-06   -0.26619E-08  4000   0.132E-04    0.893E-05
DAV:  10    -0.137900644038E+04   -0.34527E-06   -0.15369E-08  3776   0.123E-04    0.637E-05
DAV:  11    -0.137900644055E+04   -0.16832E-06   -0.64328E-09  3360   0.116E-04    0.456E-05
DAV:  12    -0.137900644072E+04   -0.17058E-06   -0.78980E-09  3520   0.109E-04    0.286E-05
DAV:  13    -0.137900644080E+04   -0.79628E-07   -0.33136E-09  3136   0.765E-05    0.204E-05
DAV:  14    -0.137900644085E+04   -0.55195E-07   -0.23437E-09  3040   0.557E-05    0.138E-05
DAV:  15    -0.137900644087E+04   -0.14043E-07   -0.10606E-09  3072   0.433E-05    0.108E-05
DAV:  16    -0.137900644087E+04   -0.59663E-08   -0.28071E-10  3072   0.227E-05
  28 F= -.13982885E+04 E0= -.13982885E+04  d E =-.288363E-03  mag=     0.0000
       N       E                     dE             d eps       ncg     rms          rms(c)
DAV:   1    -0.137900637644E+04    0.64424E-04   -0.72251E-02  4416   0.180E-01    0.765E-02
DAV:   2    -0.137900638870E+04   -0.12254E-04   -0.57760E-04  4288   0.144E-02    0.467E-02
DAV:   3    -0.137900638746E+04    0.12395E-05   -0.16318E-04  4352   0.778E-03    0.982E-03
DAV:   4    -0.137900638654E+04    0.91852E-06   -0.14739E-05  4320   0.232E-03    0.696E-03
DAV:   5    -0.137900638694E+04   -0.40399E-06   -0.76695E-06  4352   0.160E-03    0.169E-03
DAV:   6    -0.137900638773E+04   -0.78786E-06   -0.50882E-07  4288   0.472E-04    0.103E-03
DAV:   7    -0.137900638918E+04   -0.14469E-05   -0.21258E-07  4192   0.277E-04    0.458E-04
DAV:   8    -0.137900639037E+04   -0.11898E-05   -0.78767E-08  4064   0.160E-04    0.274E-04
DAV:   9    -0.137900639190E+04   -0.15339E-05   -0.78436E-08  4192   0.156E-04    0.147E-04
DAV:  10    -0.137900639285E+04   -0.94401E-06   -0.45302E-08  4064   0.139E-04    0.115E-04
DAV:  11    -0.137900639342E+04   -0.57463E-06   -0.24874E-08  4032   0.168E-04    0.632E-05
DAV:  12    -0.137900639378E+04   -0.35789E-06   -0.17956E-08  4000   0.159E-04    0.571E-05
DAV:  13    -0.137900639395E+04   -0.17582E-06   -0.46766E-09  3264   0.838E-05    0.426E-05
DAV:  14    -0.137900639405E+04   -0.98677E-07   -0.25080E-09  3168   0.600E-05    0.186E-05
DAV:  15    -0.137900639410E+04   -0.51528E-07   -0.13923E-09  3072   0.534E-05    0.141E-05
DAV:  16    -0.137900639414E+04   -0.31447E-07   -0.65734E-10  3072   0.320E-05    0.135E-05
DAV:  17    -0.137900639415E+04   -0.10143E-07   -0.55320E-11  3072   0.188E-05    0.820E-06
DAV:  18    -0.137900639415E+04   -0.51223E-08    0.32555E-11  3072   0.135E-05
  29 F= -.13982886E+04 E0= -.13982886E+04  d E =-.958597E-04  mag=    -0.0000
       N       E                     dE             d eps       ncg     rms          rms(c)
DAV:   1    -0.137900626236E+04    0.13179E-03   -0.72479E-02  4320   0.166E-01    0.773E-02
DAV:   2    -0.137900627745E+04   -0.15088E-04   -0.46314E-04  4224   0.117E-02    0.468E-02
DAV:   3    -0.137900628339E+04   -0.59372E-05   -0.61734E-05  4416   0.461E-03    0.482E-03
DAV:   4    -0.137900628354E+04   -0.15316E-06   -0.57100E-06  4512   0.129E-03    0.281E-03
DAV:   5    -0.137900628396E+04   -0.41827E-06   -0.15405E-06  4480   0.817E-04    0.893E-04
DAV:   6    -0.137900628453E+04   -0.57823E-06   -0.20192E-07  4112   0.270E-04    0.526E-04
DAV:   7    -0.137900628546E+04   -0.92555E-06   -0.83994E-08  4064   0.161E-04    0.230E-04
DAV:   8    -0.137900628603E+04   -0.57046E-06   -0.18833E-08  3744   0.912E-05    0.163E-04
DAV:   9    -0.137900628701E+04   -0.98384E-06   -0.47414E-08  4064   0.143E-04    0.849E-05
DAV:  10    -0.137900628744E+04   -0.42404E-06   -0.17482E-08  3840   0.132E-04    0.660E-05
DAV:  11    -0.137900628769E+04   -0.25169E-06   -0.64580E-09  3360   0.959E-05    0.471E-05
DAV:  12    -0.137900628800E+04   -0.31239E-06   -0.11859E-08  3840   0.855E-05    0.318E-05
DAV:  13    -0.137900628810E+04   -0.10006E-06   -0.26965E-09  3168   0.667E-05    0.198E-05
DAV:  14    -0.137900628817E+04   -0.64101E-07   -0.22017E-09  3072   0.582E-05    0.199E-05
DAV:  15    -0.137900628818E+04   -0.17157E-07   -0.71017E-10  3072   0.359E-05    0.133E-05
DAV:  16    -0.137900628819E+04   -0.10696E-07   -0.25610E-10  3008   0.222E-05    0.812E-06
DAV:  17    -0.137900628820E+04   -0.55152E-08   -0.38808E-12  3008   0.160E-05
  30 F= -.13982885E+04 E0= -.13982885E+04  d E =0.109811E-03  mag=    -0.0000
       N       E                     dE             d eps       ncg     rms          rms(c)
DAV:   1    -0.137900539921E+04    0.88898E-03   -0.80552E-02  4352   0.173E-01    0.121E-01
DAV:   2    -0.137900526820E+04    0.13101E-03   -0.12841E-03  4384   0.231E-02    0.692E-02
DAV:   3    -0.137900523978E+04    0.28422E-04   -0.65763E-04  4640   0.154E-02    0.241E-02
DAV:   4    -0.137900522704E+04    0.12735E-04   -0.74793E-05  4336   0.529E-03    0.144E-02
DAV:   5    -0.137900522699E+04    0.56651E-07   -0.21751E-05  5568   0.285E-03    0.229E-03
DAV:   6    -0.137900522720E+04   -0.20910E-06   -0.10412E-06  4384   0.680E-04    0.108E-03
DAV:   7    -0.137900522753E+04   -0.33033E-06   -0.20498E-07  4720   0.296E-04    0.615E-04
DAV:   8    -0.137900522782E+04   -0.29708E-06   -0.28946E-08  3840   0.142E-04    0.251E-04
DAV:   9    -0.137900522816E+04   -0.33688E-06   -0.17527E-08  3872   0.109E-04    0.133E-04
DAV:  10    -0.137900522846E+04   -0.30284E-06   -0.12146E-08  3648   0.113E-04    0.105E-04
DAV:  11    -0.137900522872E+04   -0.26105E-06   -0.13645E-08  3904   0.121E-04    0.564E-05
DAV:  12    -0.137900522889E+04   -0.16524E-06   -0.90079E-09  3456   0.124E-04    0.539E-05
DAV:  13    -0.137900522900E+04   -0.11355E-06   -0.71342E-09  3424   0.110E-04    0.397E-05
DAV:  14    -0.137900522905E+04   -0.51150E-07   -0.29024E-09  3168   0.737E-05    0.235E-05
DAV:  15    -0.137900522911E+04   -0.59736E-07   -0.24911E-09  3168   0.578E-05    0.193E-05
DAV:  16    -0.137900522912E+04   -0.11627E-07   -0.64869E-10  3072   0.360E-05    0.181E-05
DAV:  17    -0.137900522913E+04   -0.92114E-08   -0.19983E-10  3008   0.223E-05
  31 F= -.13982874E+04 E0= -.13982874E+04  d E =0.101669E-02  mag=    -0.0000
       N       E                     dE             d eps       ncg     rms          rms(c)
DAV:   1    -0.137900598168E+04   -0.75256E-03   -0.81773E-02  4992   0.183E-01    0.126E-01
DAV:   2    -0.137900587557E+04    0.10611E-03   -0.17721E-03  5056   0.292E-02    0.749E-02
DAV:   3    -0.137900583452E+04    0.41051E-04   -0.78391E-04  5376   0.174E-02    0.270E-02
DAV:   4    -0.137900582077E+04    0.13747E-04   -0.88003E-05  4992   0.596E-03    0.162E-02
DAV:   5    -0.137900581988E+04    0.88940E-06   -0.25246E-05  5216   0.322E-03    0.282E-03
DAV:   6    -0.137900582003E+04   -0.14252E-06   -0.13072E-06  4672   0.858E-04    0.129E-03
DAV:   7    -0.137900582020E+04   -0.17270E-06   -0.29993E-07  4960   0.376E-04    0.579E-04
DAV:   8    -0.137900582044E+04   -0.23544E-06   -0.36207E-08  4000   0.190E-04    0.293E-04
DAV:   9    -0.137900582073E+04   -0.29802E-06   -0.15527E-08  3744   0.114E-04    0.152E-04
DAV:  10    -0.137900582112E+04   -0.38158E-06   -0.15769E-08  3712   0.109E-04    0.108E-04
DAV:  11    -0.137900582141E+04   -0.29571E-06   -0.11320E-08  3680   0.114E-04    0.660E-05
DAV:  12    -0.137900582169E+04   -0.27605E-06   -0.17711E-08  3952   0.158E-04    0.512E-05
DAV:  13    -0.137900582177E+04   -0.84852E-07   -0.93456E-09  3616   0.154E-04    0.428E-05
DAV:  14    -0.137900582186E+04   -0.88927E-07   -0.47060E-09  3200   0.955E-05    0.269E-05
DAV:  15    -0.137900582190E+04   -0.39436E-07   -0.20208E-09  3136   0.607E-05    0.243E-05
DAV:  16    -0.137900582191E+04   -0.11350E-07   -0.68243E-10  3072   0.407E-05    0.106E-05
DAV:  17    -0.137900582192E+04   -0.68540E-08   -0.29925E-10  3008   0.267E-05
  32 F= -.13982879E+04 E0= -.13982879E+04  d E =-.437952E-03  mag=    -0.0000
       N       E                     dE             d eps       ncg     rms          rms(c)
DAV:   1    -0.137900609782E+04   -0.27591E-03   -0.78412E-02  5056   0.155E-01    0.124E-01
DAV:   2    -0.137900594229E+04    0.15552E-03   -0.10846E-03  5344   0.221E-02    0.682E-02
DAV:   3    -0.137900591183E+04    0.30461E-04   -0.37132E-04  5744   0.115E-02    0.211E-02
DAV:   4    -0.137900590554E+04    0.62956E-05   -0.50680E-05  5664   0.482E-03    0.963E-03
DAV:   5    -0.137900590597E+04   -0.43558E-06   -0.63561E-06  4992   0.180E-03    0.275E-03
DAV:   6    -0.137900590596E+04    0.15280E-07   -0.91789E-07  5440   0.669E-04    0.131E-03
DAV:   7    -0.137900590601E+04   -0.49506E-07   -0.20564E-07  4768   0.332E-04    0.412E-04
DAV:   8    -0.137900590606E+04   -0.56185E-07   -0.24469E-08  3840   0.133E-04    0.202E-04
DAV:   9    -0.137900590611E+04   -0.45970E-07   -0.45361E-09  3296   0.704E-05    0.104E-04
DAV:  10    -0.137900590616E+04   -0.49156E-07   -0.28024E-09  3168   0.632E-05    0.580E-05
DAV:  11    -0.137900590620E+04   -0.37107E-07   -0.17754E-09  3072   0.554E-05    0.333E-05
DAV:  12    -0.137900590623E+04   -0.38999E-07   -0.28917E-09  3152   0.624E-05    0.328E-05
DAV:  13    -0.137900590625E+04   -0.18495E-07   -0.18698E-09  3072   0.644E-05    0.255E-05
DAV:  14    -0.137900590627E+04   -0.12340E-07   -0.15221E-09  3008   0.527E-05    0.143E-05
DAV:  15    -0.137900590627E+04   -0.55588E-08   -0.51291E-10  2880   0.308E-05
  33 F= -.13982881E+04 E0= -.13982881E+04  d E =-.242937E-03  mag=    -0.0000
       N       E                     dE             d eps       ncg     rms          rms(c)
DAV:   1    -0.137900629876E+04   -0.39249E-03   -0.79529E-02  5024   0.155E-01    0.119E-01
DAV:   2    -0.137900615381E+04    0.14495E-03   -0.10235E-03  5216   0.210E-02    0.664E-02
DAV:   3    -0.137900612979E+04    0.24013E-04   -0.35822E-04  5600   0.112E-02    0.218E-02
DAV:   4    -0.137900612362E+04    0.61714E-05   -0.53948E-05  5504   0.484E-03    0.979E-03
DAV:   5    -0.137900612443E+04   -0.80731E-06   -0.62352E-06  4896   0.179E-03    0.273E-03
DAV:   6    -0.137900612438E+04    0.47454E-07   -0.10133E-06  5152   0.686E-04    0.139E-03
DAV:   7    -0.137900612442E+04   -0.43234E-07   -0.25284E-07  4976   0.343E-04    0.516E-04
DAV:   8    -0.137900612450E+04   -0.71508E-07   -0.37396E-08  4160   0.153E-04    0.234E-04
DAV:   9    -0.137900612456E+04   -0.67463E-07   -0.75646E-09  3424   0.879E-05    0.132E-04
DAV:  10    -0.137900612465E+04   -0.82320E-07   -0.58511E-09  3488   0.789E-05    0.934E-05
DAV:  11    -0.137900612473E+04   -0.85594E-07   -0.54023E-09  3328   0.891E-05    0.466E-05
DAV:  12    -0.137900612479E+04   -0.63432E-07   -0.55067E-09  3360   0.891E-05    0.462E-05
DAV:  13    -0.137900612484E+04   -0.40876E-07   -0.35944E-09  3200   0.776E-05    0.336E-05
DAV:  14    -0.137900612487E+04   -0.36758E-07   -0.32372E-09  3104   0.670E-05    0.160E-05
DAV:  15    -0.137900612489E+04   -0.14261E-07   -0.12343E-09  3072   0.412E-05    0.121E-05
DAV:  16    -0.137900612490E+04   -0.11467E-07   -0.68256E-10  3008   0.277E-05    0.740E-06
DAV:  17    -0.137900612490E+04   -0.45256E-08   -0.25474E-10  3072   0.210E-05
  34 F= -.13982881E+04 E0= -.13982881E+04  d E =0.305778E-04  mag=     0.0000
       N       E                     dE             d eps       ncg     rms          rms(c)
DAV:   1    -0.137900636303E+04   -0.23813E-03   -0.74130E-02  4960   0.168E-01    0.955E-02
DAV:   2    -0.137900633136E+04    0.31665E-04   -0.76686E-04  5152   0.175E-02    0.568E-02
DAV:   3    -0.137900632022E+04    0.11140E-04   -0.23944E-04  5440   0.948E-03    0.166E-02
DAV:   4    -0.137900631535E+04    0.48715E-05   -0.35659E-05  5216   0.373E-03    0.792E-03
DAV:   5    -0.137900631582E+04   -0.47174E-06   -0.46968E-06  4992   0.150E-03    0.236E-03
DAV:   6    -0.137900631582E+04    0.50641E-08   -0.75836E-07  5056   0.573E-04    0.983E-04
DAV:   7    -0.137900631593E+04   -0.11051E-06   -0.15012E-07  4896   0.284E-04    0.422E-04
DAV:   8    -0.137900631602E+04   -0.89043E-07   -0.19291E-08  3680   0.119E-04    0.235E-04
DAV:   9    -0.137900631612E+04   -0.10802E-06   -0.80384E-09  3520   0.915E-05    0.117E-04
DAV:  10    -0.137900631623E+04   -0.10125E-06   -0.56730E-09  3424   0.792E-05    0.679E-05
DAV:  11    -0.137900631630E+04   -0.78857E-07   -0.37037E-09  3200   0.676E-05    0.430E-05
DAV:  12    -0.137900631636E+04   -0.57888E-07   -0.42182E-09  3328   0.794E-05    0.324E-05
DAV:  13    -0.137900631640E+04   -0.33266E-07   -0.35618E-09  3136   0.824E-05    0.219E-05
DAV:  14    -0.137900631641E+04   -0.15047E-07   -0.18475E-09  3072   0.571E-05    0.116E-05
DAV:  15    -0.137900631642E+04   -0.12238E-07   -0.94347E-10  3072   0.341E-05    0.113E-05
DAV:  16    -0.137900631643E+04   -0.52678E-08   -0.28061E-10  3008   0.219E-05
  35 F= -.13982885E+04 E0= -.13982885E+04  d E =-.372999E-03  mag=    -0.0000
       N       E                     dE             d eps       ncg     rms          rms(c)
DAV:   1    -0.137900626435E+04    0.52078E-04   -0.72509E-02  4800   0.144E-01    0.774E-02
DAV:   2    -0.137900628934E+04   -0.24999E-04   -0.50233E-04  4864   0.116E-02    0.469E-02
DAV:   3    -0.137900629018E+04   -0.83790E-06   -0.67251E-05  4960   0.517E-03    0.479E-03
DAV:   4    -0.137900629054E+04   -0.35438E-06   -0.71144E-06  5152   0.151E-03    0.296E-03
DAV:   5    -0.137900629038E+04    0.15703E-06   -0.11187E-06  4672   0.815E-04    0.107E-03
DAV:   6    -0.137900629046E+04   -0.78973E-07   -0.18027E-07  4576   0.350E-04    0.502E-04
DAV:   7    -0.137900629058E+04   -0.12474E-06   -0.27450E-08  3904   0.151E-04    0.235E-04
DAV:   8    -0.137900629073E+04   -0.14469E-06   -0.10897E-08  3712   0.994E-05    0.133E-04
DAV:   9    -0.137900629090E+04   -0.16819E-06   -0.85590E-09  3552   0.100E-04    0.755E-05
DAV:  10    -0.137900629101E+04   -0.11441E-06   -0.55714E-09  3360   0.843E-05    0.473E-05
DAV:  11    -0.137900629110E+04   -0.85842E-07   -0.45148E-09  3232   0.809E-05    0.318E-05
DAV:  12    -0.137900629115E+04   -0.57888E-07   -0.38250E-09  3168   0.798E-05    0.218E-05
DAV:  13    -0.137900629120E+04   -0.49185E-07   -0.28752E-09  3200   0.613E-05    0.140E-05
DAV:  14    -0.137900629123E+04   -0.28464E-07   -0.11566E-09  3072   0.368E-05    0.982E-06
DAV:  15    -0.137900629125E+04   -0.14945E-07   -0.52692E-10  3072   0.244E-05    0.747E-06
DAV:  16    -0.137900629125E+04   -0.44383E-08   -0.12990E-10  3040   0.182E-05
  36 F= -.13982884E+04 E0= -.13982884E+04  d E =0.788166E-04  mag=     0.0000
       N       E                     dE             d eps       ncg     rms          rms(c)
DAV:   1    -0.137900549443E+04    0.79682E-03   -0.80969E-02  4864   0.150E-01    0.120E-01
DAV:   2    -0.137900536352E+04    0.13091E-03   -0.11105E-03  4848   0.198E-02    0.691E-02
DAV:   3    -0.137900533750E+04    0.26023E-04   -0.62727E-04  4992   0.145E-02    0.237E-02
DAV:   4    -0.137900532475E+04    0.12753E-04   -0.70933E-05  4640   0.499E-03    0.143E-02
DAV:   5    -0.137900532403E+04    0.72258E-06   -0.18910E-05  5408   0.266E-03    0.294E-03
DAV:   6    -0.137900532387E+04    0.15926E-06   -0.15032E-06  4384   0.797E-04    0.111E-03
DAV:   7    -0.137900532383E+04    0.33411E-07   -0.25596E-07  4992   0.318E-04    0.739E-04
DAV:   8    -0.137900532389E+04   -0.53376E-07   -0.25857E-08  3776   0.166E-04    0.321E-04
DAV:   9    -0.137900532398E+04   -0.95621E-07   -0.19879E-08  3936   0.141E-04    0.152E-04
DAV:  10    -0.137900532409E+04   -0.10333E-06   -0.46867E-09  3424   0.806E-05    0.993E-05
DAV:  11    -0.137900532423E+04   -0.14890E-06   -0.63311E-09  3520   0.841E-05    0.556E-05
DAV:  12    -0.137900532435E+04   -0.11458E-06   -0.53544E-09  3392   0.811E-05    0.382E-05
DAV:  13    -0.137900532446E+04   -0.10761E-06   -0.61804E-09  3456   0.900E-05    0.295E-05
DAV:  14    -0.137900532450E+04   -0.43059E-07   -0.36714E-09  3168   0.847E-05    0.224E-05
DAV:  15    -0.137900532453E+04   -0.33935E-07   -0.17091E-09  3040   0.498E-05    0.139E-05
DAV:  16    -0.137900532455E+04   -0.21289E-07   -0.87028E-10  3008   0.293E-05    0.101E-05
DAV:  17    -0.137900532456E+04   -0.87311E-08   -0.40172E-10  3040   0.243E-05
  37 F= -.13982872E+04 E0= -.13982872E+04  d E =0.113112E-02  mag=    -0.0000
       N       E                     dE             d eps       ncg     rms          rms(c)
DAV:   1    -0.137900648749E+04   -0.11629E-02   -0.79095E-02  5120   0.172E-01    0.116E-01
DAV:   2    -0.137900640478E+04    0.82707E-04   -0.15818E-03  5664   0.261E-02    0.698E-02
DAV:   3    -0.137900635607E+04    0.48716E-04   -0.72952E-04  5536   0.217E-02    0.272E-02
DAV:   4    -0.137900634423E+04    0.11836E-04   -0.87603E-05  5440   0.736E-03    0.171E-02
DAV:   5    -0.137900634152E+04    0.27162E-05   -0.31638E-05  5472   0.471E-03    0.463E-03
DAV:   6    -0.137900634123E+04    0.28602E-06   -0.28468E-06  6400   0.189E-03    0.150E-03
DAV:   7    -0.137900634125E+04   -0.16313E-07   -0.22131E-07  5088   0.567E-04    0.884E-04
DAV:   8    -0.137900634129E+04   -0.46392E-07   -0.86116E-08  5248   0.500E-04    0.444E-04
DAV:   9    -0.137900634141E+04   -0.11529E-06   -0.46693E-08  4768   0.343E-04    0.279E-04
DAV:  10    -0.137900634155E+04   -0.14514E-06   -0.22963E-08  4192   0.256E-04    0.181E-04
DAV:  11    -0.137900634177E+04   -0.21895E-06   -0.18406E-08  3936   0.299E-04    0.135E-04
DAV:  12    -0.137900634191E+04   -0.14025E-06   -0.24056E-08  4064   0.194E-04    0.868E-05
DAV:  13    -0.137900634203E+04   -0.11383E-06   -0.72416E-09  3552   0.113E-04    0.626E-05
DAV:  14    -0.137900634210E+04   -0.73109E-07   -0.32766E-09  3104   0.674E-05    0.384E-05
DAV:  15    -0.137900634215E+04   -0.49447E-07   -0.31803E-09  3200   0.596E-05    0.237E-05
DAV:  16    -0.137900634217E+04   -0.22905E-07   -0.18256E-09  3072   0.582E-05    0.188E-05
DAV:  17    -0.137900634218E+04   -0.12631E-07   -0.13658E-09  3072   0.463E-05    0.131E-05
DAV:  18    -0.137900634219E+04   -0.45256E-08   -0.58954E-10  3072   0.300E-05
  38 F= -.13982884E+04 E0= -.13982884E+04  d E =-.117811E-02  mag=    -0.0000
       N       E                     dE             d eps       ncg     rms          rms(c)
DAV:   1    -0.137900661411E+04   -0.27192E-03   -0.69253E-02  5120   0.140E-01    0.765E-02
DAV:   2    -0.137900653793E+04    0.76178E-04   -0.63977E-04  5664   0.147E-02    0.413E-02
DAV:   3    -0.137900650052E+04    0.37407E-04   -0.11361E-04  5984   0.897E-03    0.127E-02
DAV:   4    -0.137900649668E+04    0.38467E-05   -0.14181E-05  5824   0.353E-03    0.391E-03
DAV:   5    -0.137900649651E+04    0.17084E-06   -0.21529E-06  5952   0.141E-03    0.178E-03
DAV:   6    -0.137900649672E+04   -0.21757E-06   -0.27979E-07  5856   0.661E-04    0.104E-03
DAV:   7    -0.137900649713E+04   -0.41070E-06   -0.95193E-08  4832   0.395E-04    0.503E-04
DAV:   8    -0.137900649767E+04   -0.53309E-06   -0.49685E-08  4448   0.303E-04    0.304E-04
DAV:   9    -0.137900649834E+04   -0.67762E-06   -0.47980E-08  4256   0.264E-04    0.179E-04
DAV:  10    -0.137900649887E+04   -0.52869E-06   -0.32349E-08  4192   0.201E-04    0.122E-04
DAV:  11    -0.137900649924E+04   -0.36957E-06   -0.19051E-08  3872   0.154E-04    0.859E-05
DAV:  12    -0.137900649951E+04   -0.26956E-06   -0.12509E-08  3712   0.138E-04    0.529E-05
DAV:  13    -0.137900649966E+04   -0.14740E-06   -0.77345E-09  3488   0.119E-04    0.349E-05
DAV:  14    -0.137900649977E+04   -0.10988E-06   -0.56558E-09  3280   0.983E-05    0.250E-05
DAV:  15    -0.137900649985E+04   -0.75699E-07   -0.34338E-09  3072   0.714E-05    0.160E-05
DAV:  16    -0.137900649988E+04   -0.39116E-07   -0.18789E-09  3072   0.537E-05    0.125E-05
DAV:  17    -0.137900649991E+04   -0.20475E-07   -0.85889E-10  3072   0.368E-05    0.934E-06
DAV:  18    -0.137900649992E+04   -0.13068E-07   -0.35131E-10  3072   0.220E-05    0.543E-06
DAV:  19    -0.137900649992E+04   -0.57480E-08   -0.12473E-11  3072   0.148E-05
  39 F= -.13982886E+04 E0= -.13982886E+04  d E =-.126176E-03  mag=     0.0000
       N       E                     dE             d eps       ncg     rms          rms(c)
DAV:   1    -0.137900684460E+04   -0.34469E-03   -0.72182E-02  5120   0.142E-01    0.773E-02
DAV:   2    -0.137900685288E+04   -0.82790E-05   -0.79373E-04  5536   0.162E-02    0.485E-02
DAV:   3    -0.137900682129E+04    0.31594E-04   -0.12276E-04  6080   0.137E-02    0.134E-02
DAV:   4    -0.137900682099E+04    0.29648E-06   -0.15132E-05  5920   0.474E-03    0.538E-03
DAV:   5    -0.137900682069E+04    0.29839E-06   -0.49466E-06  5600   0.347E-03    0.238E-03
DAV:   6    -0.137900682061E+04    0.82131E-07   -0.67803E-07  6176   0.121E-03    0.123E-03
DAV:   7    -0.137900682065E+04   -0.37340E-07   -0.26001E-07  5280   0.768E-04    0.826E-04
DAV:   8    -0.137900682076E+04   -0.11121E-06   -0.96415E-08  6016   0.685E-04    0.449E-04
DAV:   9    -0.137900682095E+04   -0.18740E-06   -0.11496E-07  5248   0.652E-04    0.378E-04
DAV:  10    -0.137900682121E+04   -0.26474E-06   -0.72478E-08  4672   0.389E-04    0.232E-04
DAV:  11    -0.137900682137E+04   -0.16282E-06   -0.15723E-08  3824   0.216E-04    0.147E-04
DAV:  12    -0.137900682155E+04   -0.17426E-06   -0.14976E-08  3904   0.200E-04    0.997E-05
DAV:  13    -0.137900682165E+04   -0.10189E-06   -0.94911E-09  3680   0.127E-04    0.681E-05
DAV:  14    -0.137900682175E+04   -0.10362E-06   -0.45119E-09  3120   0.881E-05    0.472E-05
DAV:  15    -0.137900682181E+04   -0.58251E-07   -0.30628E-09  3168   0.639E-05    0.346E-05
DAV:  16    -0.137900682186E+04   -0.45955E-07   -0.28159E-09  3136   0.754E-05    0.193E-05
DAV:  17    -0.137900682189E+04   -0.30894E-07   -0.22207E-09  3104   0.611E-05    0.294E-05
DAV:  18    -0.137900682190E+04   -0.10768E-07   -0.60530E-10  3072   0.316E-05    0.205E-05
DAV:  19    -0.137900682191E+04   -0.12747E-07   -0.70355E-10  3008   0.361E-05    0.210E-05
DAV:  20    -0.137900682192E+04   -0.27503E-08   -0.15307E-10  2880   0.217E-05
  40 F= -.13982889E+04 E0= -.13982889E+04  d E =-.332018E-03  mag=     0.0000
       N       E                     dE             d eps       ncg     rms          rms(c)
DAV:   1    -0.137900588748E+04    0.93443E-03   -0.74599E-02  5120   0.166E-01    0.973E-02
DAV:   2    -0.137900582348E+04    0.64002E-04   -0.11610E-03  5728   0.222E-02    0.564E-02
DAV:   3    -0.137900580415E+04    0.19335E-04   -0.37730E-04  5888   0.155E-02    0.225E-02
DAV:   4    -0.137900579869E+04    0.54523E-05   -0.53437E-05  5760   0.579E-03    0.115E-02
DAV:   5    -0.137900579845E+04    0.24239E-06   -0.92534E-06  5440   0.305E-03    0.362E-03
DAV:   6    -0.137900579831E+04    0.14463E-06   -0.18019E-06  6096   0.133E-03    0.143E-03
DAV:   7    -0.137900579840E+04   -0.93394E-07   -0.23446E-07  5472   0.514E-04    0.717E-04
DAV:   8    -0.137900579852E+04   -0.11738E-06   -0.51833E-08  4704   0.389E-04    0.373E-04
DAV:   9    -0.137900579869E+04   -0.16866E-06   -0.27143E-08  4096   0.352E-04    0.199E-04
DAV:  10    -0.137900579884E+04   -0.15527E-06   -0.29675E-08  4448   0.300E-04    0.150E-04
DAV:  11    -0.137900579899E+04   -0.14593E-06   -0.13249E-08  3904   0.226E-04    0.925E-05
DAV:  12    -0.137900579910E+04   -0.11170E-06   -0.82885E-09  3328   0.186E-04    0.559E-05
DAV:  13    -0.137900579917E+04   -0.67928E-07   -0.88779E-09  3712   0.111E-04    0.483E-05
DAV:  14    -0.137900579919E+04   -0.28784E-07   -0.19816E-09  3136   0.526E-05    0.322E-05
DAV:  15    -0.137900579922E+04   -0.27299E-07   -0.18118E-09  3072   0.439E-05    0.166E-05
DAV:  16    -0.137900579923E+04   -0.11598E-07   -0.12278E-09  3072   0.467E-05    0.140E-05
DAV:  17    -0.137900579924E+04   -0.76543E-08   -0.74867E-10  3072   0.378E-05
  41 F= -.13982880E+04 E0= -.13982880E+04  d E =0.921558E-03  mag=     0.0000
       N       E                     dE             d eps       ncg     rms          rms(c)
DAV:   1    -0.137900644626E+04   -0.64703E-03   -0.77264E-02  4992   0.151E-01    0.119E-01
DAV:   2    -0.137900629302E+04    0.15324E-03   -0.11920E-03  5216   0.208E-02    0.664E-02
DAV:   3    -0.137900626877E+04    0.24250E-04   -0.33051E-04  5632   0.105E-02    0.218E-02
DAV:   4    -0.137900626533E+04    0.34410E-05   -0.52926E-05  5632   0.493E-03    0.911E-03
DAV:   5    -0.137900626607E+04   -0.73845E-06   -0.63101E-06  5280   0.197E-03    0.256E-03
DAV:   6    -0.137900626618E+04   -0.11148E-06   -0.96779E-07  5184   0.801E-04    0.149E-03
DAV:   7    -0.137900626641E+04   -0.22589E-06   -0.31214E-07  5088   0.407E-04    0.518E-04
DAV:   8    -0.137900626666E+04   -0.25705E-06   -0.39986E-08  4032   0.168E-04    0.252E-04
DAV:   9    -0.137900626691E+04   -0.24466E-06   -0.13448E-08  3584   0.114E-04    0.145E-04
DAV:  10    -0.137900626718E+04   -0.27074E-06   -0.14433E-08  3840   0.118E-04    0.955E-05
DAV:  11    -0.137900626739E+04   -0.21272E-06   -0.12271E-08  3680   0.140E-04    0.598E-05
DAV:  12    -0.137900626752E+04   -0.12779E-06   -0.94487E-09  3648   0.131E-04    0.515E-05
DAV:  13    -0.137900626760E+04   -0.77474E-07   -0.54440E-09  3328   0.103E-04    0.336E-05
DAV:  14    -0.137900626766E+04   -0.66124E-07   -0.49658E-09  3264   0.868E-05    0.181E-05
DAV:  15    -0.137900626768E+04   -0.15789E-07   -0.16091E-09  3072   0.534E-05    0.159E-05
DAV:  16    -0.137900626769E+04   -0.13475E-07   -0.77395E-10  3008   0.329E-05    0.838E-06
DAV:  17    -0.137900626770E+04   -0.34779E-08   -0.33653E-10  3072   0.246E-05
  42 F= -.13982883E+04 E0= -.13982883E+04  d E =-.352998E-03  mag=     0.0000
       N       E                     dE             d eps       ncg     rms          rms(c)
DAV:   1    -0.137900612030E+04    0.14739E-03   -0.78663E-02  4992   0.148E-01    0.117E-01
DAV:   2    -0.137900597856E+04    0.14175E-03   -0.11083E-03  5344   0.202E-02    0.653E-02
DAV:   3    -0.137900595449E+04    0.24068E-04   -0.30659E-04  5728   0.976E-03    0.212E-02
DAV:   4    -0.137900595057E+04    0.39182E-05   -0.45211E-05  5728   0.462E-03    0.872E-03
DAV:   5    -0.137900595089E+04   -0.31885E-06   -0.63849E-06  5280   0.184E-03    0.245E-03
DAV:   6    -0.137900595106E+04   -0.17286E-06   -0.87803E-07  5024   0.750E-04    0.144E-03
DAV:   7    -0.137900595133E+04   -0.26850E-06   -0.27685E-07  5216   0.382E-04    0.516E-04
DAV:   8    -0.137900595162E+04   -0.29166E-06   -0.40074E-08  3840   0.164E-04    0.228E-04
DAV:   9    -0.137900595187E+04   -0.24805E-06   -0.13724E-08  3520   0.110E-04    0.150E-04
DAV:  10    -0.137900595211E+04   -0.24370E-06   -0.12044E-08  3552   0.949E-05    0.106E-04
DAV:  11    -0.137900595233E+04   -0.21172E-06   -0.96690E-09  3488   0.907E-05    0.565E-05
DAV:  12    -0.137900595246E+04   -0.13025E-06   -0.64935E-09  3392   0.791E-05    0.551E-05
DAV:  13    -0.137900595252E+04   -0.68292E-07   -0.30955E-09  3072   0.647E-05    0.366E-05
DAV:  14    -0.137900595260E+04   -0.79104E-07   -0.45692E-09  3296   0.629E-05    0.191E-05
DAV:  15    -0.137900595263E+04   -0.26659E-07   -0.12620E-09  3072   0.401E-05    0.180E-05
DAV:  16    -0.137900595265E+04   -0.24476E-07   -0.78698E-10  3072   0.302E-05    0.924E-06
DAV:  17    -0.137900595267E+04   -0.17841E-07   -0.42007E-10  3072   0.267E-05    0.110E-05
DAV:  18    -0.137900595268E+04   -0.45111E-08   -0.36817E-11  2944   0.142E-05
  43 F= -.13982880E+04 E0= -.13982880E+04  d E =0.323310E-03  mag=     0.0000
       N       E                     dE             d eps       ncg     rms          rms(c)
DAV:   1    -0.137900521611E+04    0.73656E-03   -0.80917E-02  4992   0.179E-01    0.125E-01
DAV:   2    -0.137900510074E+04    0.11537E-03   -0.16445E-03  5120   0.263E-02    0.731E-02
DAV:   3    -0.137900506874E+04    0.31997E-04   -0.71028E-04  5440   0.153E-02    0.275E-02
DAV:   4    -0.137900505300E+04    0.15744E-04   -0.10480E-04  5376   0.605E-03    0.140E-02
DAV:   5    -0.137900505338E+04   -0.37435E-06   -0.16352E-05  5792   0.260E-03    0.268E-03
DAV:   6    -0.137900505336E+04    0.16182E-07   -0.10548E-06  4864   0.817E-04    0.117E-03
DAV:   7    -0.137900505347E+04   -0.10563E-06   -0.21211E-07  5024   0.413E-04    0.496E-04
DAV:   8    -0.137900505358E+04   -0.11086E-06   -0.29236E-08  4032   0.209E-04    0.242E-04
DAV:   9    -0.137900505370E+04   -0.12307E-06   -0.11305E-08  3584   0.157E-04    0.135E-04
DAV:  10    -0.137900505383E+04   -0.13177E-06   -0.10927E-08  3680   0.158E-04    0.803E-05
DAV:  11    -0.137900505391E+04   -0.77634E-07   -0.50233E-09  3200   0.950E-05    0.580E-05
DAV:  12    -0.137900505398E+04   -0.69005E-07   -0.41075E-09  3040   0.796E-05    0.331E-05
[...]
DAV:   3    -0.137900450729E+04    0.10787E-03   -0.57405E-04  4928   0.147E-02    0.233E-02
DAV:   4    -0.137900451603E+04   -0.87404E-05   -0.11499E-04  5216   0.463E-03    0.103E-02
DAV:   5    -0.137900451513E+04    0.89618E-06   -0.14726E-05  4512   0.228E-03    0.405E-03
DAV:   6    -0.137900451644E+04   -0.13070E-05   -0.13010E-06  4832   0.710E-04    0.182E-03
DAV:   7    -0.137900451827E+04   -0.18304E-05   -0.44123E-07  4256   0.480E-04    0.507E-04
DAV:   8    -0.137900451959E+04   -0.13163E-05   -0.99725E-08  4512   0.220E-04    0.341E-04
DAV:   9    -0.137900452137E+04   -0.17834E-05   -0.66913E-08  4064   0.149E-04    0.178E-04
DAV:  10    -0.137900452271E+04   -0.13423E-05   -0.58133E-08  4128   0.139E-04    0.126E-04
DAV:  11    -0.137900452352E+04   -0.80506E-06   -0.25122E-08  3872   0.101E-04    0.812E-05
DAV:  12    -0.137900452401E+04   -0.49146E-06   -0.13693E-08  3744   0.903E-05    0.509E-05
DAV:  13    -0.137900452427E+04   -0.25518E-06   -0.64015E-09  3392   0.772E-05    0.317E-05
DAV:  14    -0.137900452438E+04   -0.11944E-06   -0.32386E-09  3104   0.635E-05    0.221E-05
DAV:  15    -0.137900452445E+04   -0.69587E-07   -0.21651E-09  3072   0.507E-05    0.131E-05
DAV:  16    -0.137900452449E+04   -0.34022E-07   -0.13501E-09  3072   0.384E-05    0.866E-06
DAV:  17    -0.137900452450E+04   -0.71886E-08   -0.55101E-10  3072   0.288E-05
  60 F= -.13982867E+04 E0= -.13982867E+04  d E =-.255944E-03  mag=    -0.0000
       N       E                     dE             d eps       ncg     rms          rms(c)
DAV:   1    -0.137900426521E+04    0.25928E-03   -0.48994E-01  4544   0.508E-01    0.137E-01
DAV:   2    -0.137900434857E+04   -0.83363E-04   -0.38165E-03  5120   0.425E-02    0.852E-02
DAV:   3    -0.137900424542E+04    0.10316E-03   -0.60367E-04  5248   0.159E-02    0.242E-02
DAV:   4    -0.137900425353E+04   -0.81136E-05   -0.95177E-05  5312   0.482E-03    0.116E-02
DAV:   5    -0.137900425263E+04    0.89781E-06   -0.14678E-05  4672   0.245E-03    0.412E-03
DAV:   6    -0.137900425312E+04   -0.48419E-06   -0.14058E-06  4800   0.807E-04    0.165E-03
DAV:   7    -0.137900425355E+04   -0.43154E-06   -0.29272E-07  4352   0.430E-04    0.453E-04
DAV:   8    -0.137900425384E+04   -0.28562E-06   -0.70444E-08  4160   0.209E-04    0.265E-04
DAV:   9    -0.137900425411E+04   -0.27021E-06   -0.12247E-08  3776   0.121E-04    0.124E-04
DAV:  10    -0.137900425440E+04   -0.29225E-06   -0.13318E-08  3808   0.128E-04    0.951E-05
DAV:  11    -0.137900425455E+04   -0.15377E-06   -0.66623E-09  3616   0.877E-05    0.679E-05
DAV:  12    -0.137900425473E+04   -0.17979E-06   -0.52574E-09  3296   0.829E-05    0.391E-05
DAV:  13    -0.137900425483E+04   -0.10358E-06   -0.47796E-09  3360   0.644E-05    0.292E-05
DAV:  14    -0.137900425488E+04   -0.48065E-07   -0.18340E-09  3072   0.446E-05    0.196E-05
DAV:  15    -0.137900425491E+04   -0.29613E-07   -0.13345E-09  3072   0.424E-05    0.132E-05
DAV:  16    -0.137900425493E+04   -0.13461E-07   -0.90967E-10  3072   0.396E-05    0.848E-06
DAV:  17    -0.137900425493E+04   -0.84256E-08   -0.38457E-10  3072   0.249E-05
  61 F= -.13982862E+04 E0= -.13982862E+04  d E =0.526942E-03  mag=    -0.0000
       N       E                     dE             d eps       ncg     rms          rms(c)
DAV:   1    -0.137900320559E+04    0.10493E-02   -0.49512E-01  4992   0.500E-01    0.156E-01
DAV:   2    -0.137900344311E+04   -0.23752E-03   -0.58358E-03  5312   0.522E-02    0.102E-01
DAV:   3    -0.137900329855E+04    0.14456E-03   -0.80878E-04  5504   0.187E-02    0.361E-02
DAV:   4    -0.137900330627E+04   -0.77220E-05   -0.18351E-04  5568   0.695E-03    0.144E-02
DAV:   5    -0.137900330470E+04    0.15689E-05   -0.18875E-05  5792   0.298E-03    0.657E-03
DAV:   6    -0.137900330487E+04   -0.16741E-06   -0.34889E-06  5568   0.133E-03    0.233E-03
DAV:   7    -0.137900330518E+04   -0.30769E-06   -0.57061E-07  4864   0.631E-04    0.838E-04
DAV:   8    -0.137900330562E+04   -0.43889E-06   -0.16710E-07  4640   0.331E-04    0.546E-04
DAV:   9    -0.137900330602E+04   -0.40075E-06   -0.30208E-08  4096   0.189E-04    0.291E-04
DAV:  10    -0.137900330661E+04   -0.58711E-06   -0.31359E-08  4128   0.212E-04    0.160E-04
DAV:  11    -0.137900330703E+04   -0.41930E-06   -0.28516E-08  4160   0.181E-04    0.135E-04
DAV:  12    -0.137900330736E+04   -0.33711E-06   -0.16389E-08  3840   0.146E-04    0.735E-05
DAV:  13    -0.137900330758E+04   -0.22200E-06   -0.11846E-08  3744   0.123E-04    0.495E-05
DAV:  14    -0.137900330767E+04   -0.83790E-07   -0.46055E-09  3200   0.906E-05    0.369E-05
DAV:  15    -0.137900330774E+04   -0.75917E-07   -0.31410E-09  3104   0.652E-05    0.209E-05
DAV:  16    -0.137900330780E+04   -0.59677E-07   -0.29012E-09  3200   0.542E-05    0.149E-05
DAV:  17    -0.137900330782E+04   -0.12937E-07   -0.90442E-10  3072   0.363E-05    0.111E-05
DAV:  18    -0.137900330784E+04   -0.21028E-07   -0.60364E-10  3040   0.283E-05    0.717E-06
DAV:  19    -0.137900330785E+04   -0.88476E-08   -0.19883E-10  3072   0.214E-05
  62 F= -.13982855E+04 E0= -.13982855E+04  d E =0.672747E-03  mag=     0.0000
       N       E                     dE             d eps       ncg     rms          rms(c)
DAV:   1    -0.137900473376E+04   -0.14259E-02   -0.45746E-01  5056   0.478E-01    0.142E-01
DAV:   2    -0.137900479025E+04   -0.56491E-04   -0.31541E-03  5376   0.389E-02    0.867E-02
DAV:   3    -0.137900474748E+04    0.42770E-04   -0.55196E-04  5792   0.157E-02    0.240E-02
DAV:   4    -0.137900474751E+04   -0.36147E-07   -0.10310E-04  5856   0.558E-03    0.100E-02
DAV:   5    -0.137900474792E+04   -0.40176E-06   -0.13378E-05  6016   0.239E-03    0.422E-03
DAV:   6    -0.137900474810E+04   -0.18146E-06   -0.14029E-06  5568   0.109E-03    0.192E-03
DAV:   7    -0.137900474846E+04   -0.35849E-06   -0.34273E-07  4736   0.566E-04    0.636E-04
DAV:   8    -0.137900474888E+04   -0.42556E-06   -0.12098E-07  4832   0.328E-04    0.397E-04
DAV:   9    -0.137900474930E+04   -0.41789E-06   -0.25888E-08  4032   0.190E-04    0.244E-04
DAV:  10    -0.137900474982E+04   -0.52278E-06   -0.28887E-08  4128   0.188E-04    0.143E-04
DAV:  11    -0.137900475014E+04   -0.31464E-06   -0.18403E-08  3904   0.150E-04    0.104E-04
DAV:  12    -0.137900475035E+04   -0.21841E-06   -0.67042E-09  3424   0.853E-05    0.767E-05
DAV:  13    -0.137900475054E+04   -0.18737E-06   -0.80044E-09  3536   0.792E-05    0.454E-05
DAV:  14    -0.137900475063E+04   -0.90600E-07   -0.36879E-09  3104   0.640E-05    0.345E-05
DAV:  15    -0.137900475067E+04   -0.40003E-07   -0.21607E-09  3136   0.515E-05    0.221E-05
DAV:  16    -0.137900475070E+04   -0.29569E-07   -0.16587E-09  3072   0.424E-05    0.179E-05
DAV:  17    -0.137900475072E+04   -0.16124E-07   -0.10202E-09  3072   0.346E-05    0.174E-05
DAV:  18    -0.137900475072E+04   -0.55734E-08   -0.46491E-10  3072   0.288E-05
  63 F= -.13982869E+04 E0= -.13982869E+04  d E =-.142335E-02  mag=     0.0000
       N       E                     dE             d eps       ncg     rms          rms(c)
DAV:   1    -0.137900500138E+04   -0.25066E-03   -0.48950E-01  4992   0.490E-01    0.153E-01
DAV:   2    -0.137900508384E+04   -0.82460E-04   -0.41433E-03  5408   0.450E-02    0.920E-02
DAV:   3    -0.137900498367E+04    0.10017E-03   -0.57451E-04  5664   0.155E-02    0.295E-02
DAV:   4    -0.137900498854E+04   -0.48647E-05   -0.10136E-04  5664   0.508E-03    0.127E-02
DAV:   5    -0.137900498780E+04    0.74021E-06   -0.15861E-05  5376   0.271E-03    0.462E-03
DAV:   6    -0.137900498896E+04   -0.11646E-05   -0.22989E-06  4688   0.102E-03    0.188E-03
DAV:   7    -0.137900499023E+04   -0.12678E-05   -0.33212E-07  5024   0.523E-04    0.746E-04
DAV:   8    -0.137900499154E+04   -0.13158E-05   -0.13158E-07  4768   0.350E-04    0.432E-04
DAV:   9    -0.137900499292E+04   -0.13790E-05   -0.73884E-08  4192   0.293E-04    0.265E-04
DAV:  10    -0.137900499440E+04   -0.14735E-05   -0.10882E-07  4304   0.329E-04    0.165E-04
DAV:  11    -0.137900499498E+04   -0.57815E-06   -0.47867E-08  4368   0.189E-04    0.146E-04
DAV:  12    -0.137900499528E+04   -0.30875E-06   -0.66024E-09  3424   0.820E-05    0.104E-04
DAV:  13    -0.137900499574E+04   -0.45945E-06   -0.21201E-08  3936   0.104E-04    0.594E-05
DAV:  14    -0.137900499583E+04   -0.90993E-07   -0.29026E-09  3136   0.783E-05    0.465E-05
DAV:  15    -0.137900499593E+04   -0.91648E-07   -0.26924E-09  3168   0.651E-05    0.261E-05
DAV:  16    -0.137900499602E+04   -0.94849E-07   -0.32621E-09  3200   0.632E-05    0.248E-05
DAV:  17    -0.137900499605E+04   -0.27110E-07   -0.12896E-09  3072   0.496E-05    0.159E-05
DAV:  18    -0.137900499607E+04   -0.23880E-07   -0.11198E-09  3072   0.448E-05    0.144E-05
DAV:  19    -0.137900499608E+04   -0.31869E-08   -0.27631E-10  3072   0.243E-05
  64 F= -.13982868E+04 E0= -.13982868E+04  d E =0.101800E-03  mag=    -0.0000
       N       E                     dE             d eps       ncg     rms          rms(c)
DAV:   1    -0.137900412804E+04    0.86803E-03   -0.48637E-01  5056   0.490E-01    0.151E-01
DAV:   2    -0.137900420248E+04   -0.74442E-04   -0.53421E-03  5600   0.492E-02    0.888E-02
DAV:   3    -0.137900410517E+04    0.97317E-04   -0.66551E-04  5728   0.175E-02    0.321E-02
DAV:   4    -0.137900410965E+04   -0.44819E-05   -0.11571E-04  6016   0.583E-03    0.125E-02
DAV:   5    -0.137900411057E+04   -0.92440E-06   -0.11962E-05  6304   0.249E-03    0.491E-03
DAV:   6    -0.137900411089E+04   -0.31626E-06   -0.19709E-06  5184   0.123E-03    0.210E-03
DAV:   7    -0.137900411145E+04   -0.55603E-06   -0.37415E-07  5312   0.566E-04    0.778E-04
DAV:   8    -0.137900411203E+04   -0.57905E-06   -0.73548E-08  4832   0.279E-04    0.376E-04
DAV:   9    -0.137900411260E+04   -0.57247E-06   -0.27382E-08  4128   0.197E-04    0.220E-04
DAV:  10    -0.137900411314E+04   -0.54295E-06   -0.21077E-08  4032   0.141E-04    0.128E-04
DAV:  11    -0.137900411359E+04   -0.44682E-06   -0.15646E-08  3904   0.110E-04    0.811E-05
DAV:  12    -0.137900411386E+04   -0.27627E-06   -0.75903E-09  3584   0.755E-05    0.536E-05
DAV:  13    -0.137900411407E+04   -0.21090E-06   -0.63187E-09  3520   0.647E-05    0.348E-05
DAV:  14    -0.137900411419E+04   -0.11492E-06   -0.30991E-09  3104   0.518E-05    0.243E-05
DAV:  15    -0.137900411427E+04   -0.80545E-07   -0.24767E-09  3040   0.460E-05    0.134E-05
DAV:  16    -0.137900411431E+04   -0.40760E-07   -0.15040E-09  3072   0.398E-05    0.100E-05
DAV:  17    -0.137900411433E+04   -0.16458E-07   -0.82097E-10  3072   0.361E-05    0.700E-06
DAV:  18    -0.137900411434E+04   -0.97352E-08   -0.37484E-10  3072   0.274E-05
  65 F= -.13982861E+04 E0= -.13982861E+04  d E =0.673141E-03  mag=     0.0000
       N       E                     dE             d eps       ncg     rms          rms(c)
DAV:   1    -0.137900499002E+04   -0.87569E-03   -0.48795E-01  5056   0.478E-01    0.151E-01
DAV:   2    -0.137900479267E+04    0.19735E-03   -0.40574E-03  5504   0.430E-02    0.830E-02
DAV:   3    -0.137900469239E+04    0.10028E-03   -0.67701E-04  5952   0.177E-02    0.308E-02
DAV:   4    -0.137900469416E+04   -0.17709E-05   -0.13051E-04  6112   0.639E-03    0.119E-02
DAV:   5    -0.137900469501E+04   -0.84490E-06   -0.10435E-05  5440   0.260E-03    0.469E-03
DAV:   6    -0.137900469549E+04   -0.47940E-06   -0.30660E-06  5984   0.156E-03    0.231E-03
DAV:   7    -0.137900469595E+04   -0.46661E-06   -0.46071E-07  5152   0.624E-04    0.109E-03
DAV:   8    -0.137900469660E+04   -0.64628E-06   -0.15541E-07  4928   0.409E-04    0.490E-04
DAV:   9    -0.137900469718E+04   -0.58097E-06   -0.47247E-08  4608   0.312E-04    0.291E-04
DAV:  10    -0.137900469785E+04   -0.67145E-06   -0.40386E-08  4512   0.287E-04    0.179E-04
DAV:  11    -0.137900469845E+04   -0.60150E-06   -0.41195E-08  4128   0.262E-04    0.120E-04
DAV:  12    -0.137900469881E+04   -0.35600E-06   -0.25970E-08  4096   0.166E-04    0.997E-05
DAV:  13    -0.137900469900E+04   -0.18664E-06   -0.44218E-09  3200   0.821E-05    0.618E-05
DAV:  14    -0.137900469920E+04   -0.19986E-06   -0.81486E-09  3584   0.833E-05    0.394E-05
DAV:  15    -0.137900469925E+04   -0.50553E-07   -0.17848E-09  3072   0.497E-05    0.279E-05
DAV:  16    -0.137900469932E+04   -0.73924E-07   -0.19649E-09  3136   0.388E-05    0.158E-05
DAV:  17    -0.137900469936E+04   -0.35478E-07   -0.90832E-10  3072   0.310E-05    0.148E-05
DAV:  18    -0.137900469938E+04   -0.20693E-07   -0.64083E-10  3072   0.297E-05    0.815E-06
DAV:  19    -0.137900469938E+04   -0.90804E-08   -0.34623E-10  3072   0.264E-05
  66 F= -.13982869E+04 E0= -.13982869E+04  d E =-.781267E-03  mag=     0.0000
       N       E                     dE             d eps       ncg     rms          rms(c)
DAV:   1    -0.137900499451E+04   -0.29514E-03   -0.49357E-01  4992   0.475E-01    0.148E-01
DAV:   2    -0.137900507254E+04   -0.78030E-04   -0.46590E-03  5408   0.453E-02    0.892E-02
DAV:   3    -0.137900494165E+04    0.13089E-03   -0.69654E-04  5408   0.179E-02    0.284E-02
DAV:   4    -0.137900494865E+04   -0.70017E-05   -0.12671E-04  5792   0.603E-03    0.134E-02
DAV:   5    -0.137900494711E+04    0.15366E-05   -0.17646E-05  5504   0.314E-03    0.492E-03
DAV:   6    -0.137900494771E+04   -0.60060E-06   -0.24243E-06  5120   0.109E-03    0.186E-03
DAV:   7    -0.137900494841E+04   -0.69437E-06   -0.28984E-07  5424   0.505E-04    0.695E-04
DAV:   8    -0.137900494907E+04   -0.66013E-06   -0.96935E-08  4928   0.315E-04    0.356E-04
DAV:   9    -0.137900494966E+04   -0.59200E-06   -0.21160E-08  3776   0.161E-04    0.245E-04
DAV:  10    -0.137900495062E+04   -0.95800E-06   -0.44495E-08  4224   0.201E-04    0.142E-04
DAV:  11    -0.137900495122E+04   -0.59769E-06   -0.30199E-08  3968   0.154E-04    0.988E-05
DAV:  12    -0.137900495161E+04   -0.39753E-06   -0.14434E-08  3680   0.104E-04    0.714E-05
DAV:  13    -0.137900495184E+04   -0.22641E-06   -0.56109E-09  3264   0.667E-05    0.508E-05
DAV:  14    -0.137900495199E+04   -0.15309E-06   -0.41425E-09  3200   0.554E-05    0.279E-05
DAV:  15    -0.137900495208E+04   -0.82131E-07   -0.22813E-09  3072   0.457E-05    0.200E-05
DAV:  16    -0.137900495213E+04   -0.53318E-07   -0.16438E-09  3008   0.390E-05    0.141E-05
DAV:  17    -0.137900495215E+04   -0.24447E-07   -0.11173E-09  3072   0.372E-05    0.851E-06
DAV:  18    -0.137900495216E+04   -0.83091E-08   -0.46099E-10  3072   0.281E-05
  67 F= -.13982871E+04 E0= -.13982871E+04  d E =-.187904E-03  mag=     0.0000
       N       E                     dE             d eps       ncg     rms          rms(c)
DAV:   1    -0.137900404547E+04    0.90669E-03   -0.48524E-01  5056   0.501E-01    0.130E-01
DAV:   2    -0.137900414009E+04   -0.94620E-04   -0.40435E-03  5472   0.416E-02    0.860E-02
DAV:   3    -0.137900402395E+04    0.11614E-03   -0.52164E-04  5632   0.173E-02    0.230E-02
DAV:   4    -0.137900403663E+04   -0.12678E-04   -0.14211E-04  6112   0.628E-03    0.955E-03
DAV:   5    -0.137900403571E+04    0.91849E-06   -0.12478E-05  5632   0.309E-03    0.455E-03
DAV:   6    -0.137900403645E+04   -0.74034E-06   -0.21471E-06  6080   0.126E-03    0.199E-03
DAV:   7    -0.137900403719E+04   -0.74402E-06   -0.31871E-07  5504   0.624E-04    0.906E-04
DAV:   8    -0.137900403804E+04   -0.84499E-06   -0.90271E-08  4672   0.378E-04    0.401E-04
DAV:   9    -0.137900403881E+04   -0.76898E-06   -0.48972E-08  4512   0.254E-04    0.280E-04
DAV:  10    -0.137900403972E+04   -0.91534E-06   -0.41543E-08  4128   0.243E-04    0.159E-04
DAV:  11    -0.137900404043E+04   -0.70606E-06   -0.47175E-08  4320   0.218E-04    0.118E-04
DAV:  12    -0.137900404085E+04   -0.42625E-06   -0.26445E-08  4032   0.156E-04    0.924E-05
DAV:  13    -0.137900404103E+04   -0.17927E-06   -0.45142E-09  3232   0.706E-05    0.756E-05
DAV:  14    -0.137900404116E+04   -0.13250E-06   -0.42108E-09  3264   0.609E-05    0.358E-05
DAV:  15    -0.137900404127E+04   -0.10058E-06   -0.28963E-09  3104   0.610E-05    0.295E-05
DAV:  16    -0.137900404132E+04   -0.55370E-07   -0.20155E-09  3072   0.535E-05    0.279E-05
DAV:  17    -0.137900404135E+04   -0.25626E-07   -0.10041E-09  3072   0.413E-05    0.155E-05
DAV:  18    -0.137900404137E+04   -0.21930E-07   -0.75784E-10  3008   0.319E-05    0.149E-05
DAV:  19    -0.137900404137E+04   -0.62864E-08   -0.19532E-10  3040   0.226E-05
  68 F= -.13982862E+04 E0= -.13982862E+04  d E =0.919294E-03  mag=    -0.0000
       N       E                     dE             d eps       ncg     rms          rms(c)
DAV:   1    -0.137900443851E+04   -0.39714E-03   -0.49300E-01  4992   0.488E-01    0.145E-01
DAV:   2    -0.137900439514E+04    0.43365E-04   -0.32133E-03  5248   0.404E-02    0.888E-02
DAV:   3    -0.137900427514E+04    0.12000E-03   -0.74983E-04  5504   0.179E-02    0.176E-02
DAV:   4    -0.137900428239E+04   -0.72476E-05   -0.11695E-04  5600   0.564E-03    0.107E-02
DAV:   5    -0.137900428214E+04    0.24942E-06   -0.82458E-06  6048   0.182E-03    0.640E-03
DAV:   6    -0.137900428244E+04   -0.30191E-06   -0.20068E-06  4768   0.117E-03    0.227E-03
DAV:   7    -0.137900428284E+04   -0.39504E-06   -0.53035E-07  5216   0.694E-04    0.791E-04
DAV:   8    -0.137900428316E+04   -0.31713E-06   -0.16204E-07  4800   0.361E-04    0.466E-04
DAV:   9    -0.137900428346E+04   -0.30194E-06   -0.31138E-08  3776   0.178E-04    0.240E-04
DAV:  10    -0.137900428382E+04   -0.36256E-06   -0.15274E-08  3648   0.132E-04    0.130E-04
DAV:  11    -0.137900428412E+04   -0.30189E-06   -0.10960E-08  3616   0.114E-04    0.783E-05
DAV:  12    -0.137900428434E+04   -0.21404E-06   -0.70846E-09  3360   0.863E-05    0.461E-05
DAV:  13    -0.137900428447E+04   -0.13236E-06   -0.49576E-09  3200   0.731E-05    0.343E-05
DAV:  14    -0.137900428455E+04   -0.83994E-07   -0.40062E-09  3040   0.668E-05    0.231E-05
DAV:  15    -0.137900428459E+04   -0.40629E-07   -0.26752E-09  3072   0.578E-05    0.148E-05
DAV:  16    -0.137900428462E+04   -0.22745E-07   -0.16186E-09  3040   0.438E-05    0.109E-05
DAV:  17    -0.137900428462E+04   -0.65920E-08   -0.69487E-10  3072   0.319E-05
  69 F= -.13982865E+04 E0= -.13982865E+04  d E =-.304968E-03  mag=    -0.0000
       N       E                     dE             d eps       ncg     rms          rms(c)
DAV:   1    -0.137900470901E+04   -0.42439E-03   -0.48982E-01  4992   0.481E-01    0.151E-01
DAV:   2    -0.137900463964E+04    0.69362E-04   -0.36342E-03  5408   0.422E-02    0.885E-02
DAV:   3    -0.137900452715E+04    0.11250E-03   -0.76606E-04  5568   0.173E-02    0.271E-02
DAV:   4    -0.137900452925E+04   -0.21015E-05   -0.13375E-04  5824   0.634E-03    0.106E-02
DAV:   5    -0.137900453016E+04   -0.91054E-06   -0.12782E-05  5888   0.237E-03    0.466E-03
DAV:   6    -0.137900453087E+04   -0.70753E-06   -0.18201E-06  5248   0.112E-03    0.179E-03
DAV:   7    -0.137900453150E+04   -0.62873E-06   -0.35832E-07  5152   0.447E-04    0.721E-04
DAV:   8    -0.137900453187E+04   -0.37560E-06   -0.63619E-08  4032   0.202E-04    0.336E-04
DAV:   9    -0.137900453226E+04   -0.38232E-06   -0.17936E-08  3744   0.135E-04    0.163E-04
DAV:  10    -0.137900453261E+04   -0.35757E-06   -0.13897E-08  3872   0.110E-04    0.106E-04
DAV:  11    -0.137900453298E+04   -0.36196E-06   -0.17417E-08  3872   0.117E-04    0.639E-05
DAV:  12    -0.137900453316E+04   -0.18656E-06   -0.83615E-09  3488   0.989E-05    0.515E-05
DAV:  13    -0.137900453328E+04   -0.11531E-06   -0.62846E-09  3328   0.926E-05    0.319E-05
DAV:  14    -0.137900453335E+04   -0.72643E-07   -0.47172E-09  3136   0.846E-05    0.247E-05
DAV:  15    -0.137900453338E+04   -0.33979E-07   -0.24379E-09  3072   0.598E-05    0.156E-05
DAV:  16    -0.137900453341E+04   -0.29439E-07   -0.13769E-09  3072   0.407E-05    0.123E-05
DAV:  17    -0.137900453342E+04   -0.11001E-07   -0.48478E-10  2944   0.268E-05    0.102E-05
DAV:  18    -0.137900453343E+04   -0.99826E-08   -0.18492E-10  3072   0.205E-05
  70 F= -.13982865E+04 E0= -.13982865E+04  d E =0.170331E-04  mag=    -0.0000
