       N       E                     dE             d eps       ncg     rms          rms(c)
DAV:   1    -0.137733521758E+04   -0.13773E+04   -0.13597E+00  6272   0.986E-01    0.954E-01
DAV:   2    -0.137909550859E+04   -0.17603E+01   -0.12115E+00  6208   0.959E-01    0.413E-01
DAV:   3    -0.137910540339E+04   -0.98948E-02   -0.43522E-02  6720   0.232E-01    0.279E-01
DAV:   4    -0.137910544925E+04   -0.45862E-04   -0.21798E-03  5600   0.578E-02    0.225E-01
DAV:   5    -0.137910545166E+04   -0.24080E-05   -0.20288E-04  6848   0.183E-02    0.190E-01
DAV:   6    -0.137910546141E+04   -0.97560E-05   -0.25152E-05  6848   0.739E-03    0.163E-01
DAV:   7    -0.137910546581E+04   -0.43980E-05   -0.23248E-05  6912   0.792E-03    0.132E-01
DAV:   8    -0.137910546994E+04   -0.41334E-05   -0.19906E-05  6848   0.698E-03    0.106E-01
DAV:   9    -0.137910547420E+04   -0.42516E-05   -0.68506E-06  7200   0.390E-03    0.888E-02
DAV:  10    -0.137910547809E+04   -0.38931E-05   -0.92543E-06  6656   0.500E-03    0.649E-02
DAV:  11    -0.137910548207E+04   -0.39795E-05   -0.41704E-05  6528   0.105E-02    0.202E-02
DAV:  12    -0.137910548345E+04   -0.13856E-05   -0.69701E-06  6976   0.343E-03    0.124E-02
DAV:  13    -0.137910548371E+04   -0.25806E-06   -0.83830E-07  7232   0.142E-03    0.614E-03
DAV:  14    -0.137910548378E+04   -0.66517E-07   -0.50553E-07  6832   0.104E-03    0.301E-03
DAV:  15    -0.137910548378E+04    0.40018E-08   -0.76692E-08  4992   0.406E-04
   1 F= -.13985067E+04 E0= -.13985067E+04  d E =-.139851E+04  mag=     0.0000
       N       E                     dE             d eps       ncg     rms          rms(c)
DAV:   1    -0.137910417420E+04    0.13096E-02   -0.58237E-01  5120   0.870E-01    0.120E-01
DAV:   2    -0.137910453334E+04   -0.35914E-03   -0.54024E-03  5472   0.804E-02    0.802E-02
DAV:   3    -0.137910447776E+04    0.55582E-04   -0.58055E-04  6336   0.358E-02    0.342E-02
DAV:   4    -0.137910447889E+04   -0.11306E-05   -0.11296E-04  6112   0.156E-02    0.151E-02
DAV:   5    -0.137910447639E+04    0.24934E-05   -0.23085E-05  6336   0.691E-03    0.746E-03
DAV:   6    -0.137910447577E+04    0.62010E-06   -0.36177E-06  5728   0.250E-03    0.379E-03
DAV:   7    -0.137910447556E+04    0.20956E-06   -0.20150E-06  6432   0.218E-03    0.139E-03
DAV:   8    -0.137910447559E+04   -0.23807E-07   -0.35049E-07  6096   0.107E-03    0.984E-04
DAV:   9    -0.137910447566E+04   -0.68510E-07   -0.11075E-07  4768   0.553E-04    0.481E-04
DAV:  10    -0.137910447578E+04   -0.12582E-06   -0.69404E-08  5024   0.588E-04    0.418E-04
DAV:  11    -0.137910447589E+04   -0.10671E-06   -0.54513E-08  4832   0.366E-04    0.243E-04
DAV:  12    -0.137910447600E+04   -0.11666E-06   -0.97178E-09  3232   0.212E-04    0.135E-04
DAV:  13    -0.137910447617E+04   -0.16308E-06   -0.20757E-08  4032   0.217E-04    0.175E-04
DAV:  14    -0.137910447624E+04   -0.68074E-07   -0.77547E-09  3456   0.124E-04    0.108E-04
DAV:  15    -0.137910447629E+04   -0.51514E-07   -0.31375E-09  3072   0.761E-05    0.551E-05
DAV:  16    -0.137910447637E+04   -0.78435E-07   -0.47049E-09  3136   0.770E-05    0.623E-05
DAV:  17    -0.137910447639E+04   -0.28842E-07   -0.16252E-09  3072   0.499E-05    0.539E-05
DAV:  18    -0.137910447642E+04   -0.26965E-07   -0.18538E-09  3072   0.563E-05    0.318E-05
DAV:  19    -0.137910447643E+04   -0.83674E-08   -0.57577E-10  3072   0.313E-05
   2 F= -.13985059E+04 E0= -.13985059E+04  d E =0.849234E-03  mag=     0.0000
       N       E                     dE             d eps       ncg     rms          rms(c)
DAV:   1    -0.137910406937E+04    0.40705E-03   -0.11607E+00  5120   0.122E+00    0.140E-01
DAV:   2    -0.137910492446E+04   -0.85508E-03   -0.11195E-02  5472   0.109E-01    0.854E-02
DAV:   3    -0.137910483624E+04    0.88213E-04   -0.89048E-04  6272   0.365E-02    0.458E-02
DAV:   4    -0.137910481493E+04    0.21314E-04   -0.25359E-04  5600   0.231E-02    0.169E-02
DAV:   5    -0.137910481281E+04    0.21154E-05   -0.55999E-05  5440   0.104E-02    0.110E-02
DAV:   6    -0.137910481300E+04   -0.18836E-06   -0.17967E-05  6752   0.475E-03    0.694E-03
DAV:   7    -0.137910481238E+04    0.62492E-06   -0.29665E-06  6784   0.252E-03    0.375E-03
DAV:   8    -0.137910481239E+04   -0.14232E-07   -0.22412E-06  5920   0.213E-03    0.207E-03
DAV:   9    -0.137910481242E+04   -0.26484E-07   -0.46853E-07  6400   0.979E-04    0.107E-03
DAV:  10    -0.137910481260E+04   -0.18295E-06   -0.12121E-07  4736   0.497E-04    0.353E-04
DAV:  11    -0.137910481285E+04   -0.24738E-06   -0.56264E-08  5120   0.370E-04    0.413E-04
DAV:  12    -0.137910481305E+04   -0.19853E-06   -0.32351E-08  4352   0.288E-04    0.163E-04
DAV:  13    -0.137910481322E+04   -0.16989E-06   -0.11353E-08  3360   0.179E-04    0.114E-04
DAV:  14    -0.137910481336E+04   -0.14772E-06   -0.95132E-09  3488   0.119E-04    0.108E-04
DAV:  15    -0.137910481345E+04   -0.85682E-07   -0.42591E-09  3104   0.852E-05    0.548E-05
DAV:  16    -0.137910481354E+04   -0.84707E-07   -0.62122E-09  3232   0.849E-05    0.625E-05
DAV:  17    -0.137910481355E+04   -0.19209E-07   -0.14560E-09  3136   0.471E-05    0.489E-05
DAV:  18    -0.137910481358E+04   -0.21362E-07   -0.19623E-09  3040   0.536E-05    0.368E-05
DAV:  19    -0.137910481358E+04   -0.88912E-08   -0.40061E-10  3072   0.309E-05
   3 F= -.13985061E+04 E0= -.13985061E+04  d E =-.242960E-03  mag=     0.0000
       N       E                     dE             d eps       ncg     rms          rms(c)
DAV:   1    -0.137910449839E+04    0.31518E-03   -0.11564E+00  5120   0.123E+00    0.151E-01
DAV:   2    -0.137910514300E+04   -0.64461E-03   -0.10592E-02  5504   0.117E-01    0.109E-01
DAV:   3    -0.137910500677E+04    0.13622E-03   -0.12025E-03  6144   0.533E-02    0.500E-02
DAV:   4    -0.137910501297E+04   -0.61986E-05   -0.22087E-04  6080   0.210E-02    0.213E-02
DAV:   5    -0.137910500635E+04    0.66190E-05   -0.58216E-05  5472   0.134E-02    0.908E-03
DAV:   6    -0.137910500603E+04    0.32139E-06   -0.79105E-06  5696   0.412E-03    0.434E-03
DAV:   7    -0.137910500606E+04   -0.27183E-07   -0.41035E-06  5952   0.311E-03    0.285E-03
DAV:   8    -0.137910500608E+04   -0.25451E-07   -0.79644E-07  6016   0.141E-03    0.146E-03
DAV:   9    -0.137910500638E+04   -0.29268E-06   -0.43662E-07  5728   0.120E-03    0.813E-04
DAV:  10    -0.137910500678E+04   -0.40057E-06   -0.16125E-07  5792   0.794E-04    0.669E-04
DAV:  11    -0.137910500721E+04   -0.43071E-06   -0.97866E-08  5344   0.566E-04    0.288E-04
DAV:  12    -0.137910500781E+04   -0.59903E-06   -0.45732E-08  4448   0.444E-04    0.261E-04
DAV:  13    -0.137910500814E+04   -0.33005E-06   -0.30998E-08  4160   0.245E-04    0.182E-04
DAV:  14    -0.137910500840E+04   -0.26435E-06   -0.80275E-09  3328   0.117E-04    0.996E-05
DAV:  15    -0.137910500868E+04   -0.27855E-06   -0.12582E-08  3680   0.969E-05    0.669E-05
DAV:  16    -0.137910500881E+04   -0.12793E-06   -0.38902E-09  3072   0.700E-05    0.390E-05
DAV:  17    -0.137910500893E+04   -0.12506E-06   -0.49537E-09  3328   0.572E-05    0.437E-05
DAV:  18    -0.137910500898E+04   -0.48807E-07   -0.18385E-09  3072   0.492E-05    0.291E-05
DAV:  19    -0.137910500902E+04   -0.38475E-07   -0.21629E-09  3072   0.539E-05    0.463E-05
DAV:  20    -0.137910500903E+04   -0.12704E-07   -0.72901E-10  3136   0.408E-05    0.282E-05
DAV:  21    -0.137910500904E+04   -0.72323E-08   -0.62150E-10  3072   0.363E-05
   4 F= -.13985066E+04 E0= -.13985066E+04  d E =-.468394E-03  mag=     0.0000
       N       E                     dE             d eps       ncg     rms          rms(c)
DAV:   1    -0.137910386304E+04    0.11460E-02   -0.11642E+00  5120   0.121E+00    0.172E-01
DAV:   2    -0.137910474459E+04   -0.88155E-03   -0.12142E-02  5568   0.116E-01    0.118E-01
DAV:   3    -0.137910457194E+04    0.17265E-03   -0.11219E-03  6112   0.468E-02    0.581E-02
DAV:   4    -0.137910456198E+04    0.99693E-05   -0.30658E-04  6112   0.242E-02    0.209E-02
DAV:   5    -0.137910455762E+04    0.43545E-05   -0.59346E-05  6144   0.110E-02    0.116E-02
DAV:   6    -0.137910455533E+04    0.22945E-05   -0.81012E-06  5568   0.405E-03    0.586E-03
DAV:   7    -0.137910455431E+04    0.10210E-05   -0.45501E-06  6688   0.356E-03    0.227E-03
DAV:   8    -0.137910455407E+04    0.23987E-06   -0.10184E-06  5856   0.182E-03    0.137E-03
DAV:   9    -0.137910455422E+04   -0.15477E-06   -0.49024E-07  6496   0.141E-03    0.928E-04
DAV:  10    -0.137910455484E+04   -0.62118E-06   -0.29648E-07  6048   0.128E-03    0.692E-04
DAV:  11    -0.137910455562E+04   -0.78141E-06   -0.29742E-07  5440   0.915E-04    0.414E-04
DAV:  12    -0.137910455612E+04   -0.49765E-06   -0.65544E-08  5216   0.315E-04    0.355E-04
DAV:  13    -0.137910455656E+04   -0.44097E-06   -0.16174E-08  3744   0.177E-04    0.208E-04
DAV:  14    -0.137910455718E+04   -0.61899E-06   -0.32548E-08  4288   0.176E-04    0.109E-04
DAV:  15    -0.137910455748E+04   -0.30379E-06   -0.80761E-09  3488   0.984E-05    0.683E-05
DAV:  16    -0.137910455776E+04   -0.27491E-06   -0.92846E-09  3584   0.847E-05    0.406E-05
DAV:  17    -0.137910455791E+04   -0.14879E-06   -0.52420E-09  3232   0.887E-05    0.272E-05
DAV:  18    -0.137910455798E+04   -0.74826E-07   -0.51265E-09  3232   0.104E-04    0.189E-05
DAV:  19    -0.137910455801E+04   -0.25713E-07   -0.32771E-09  3072   0.941E-05    0.128E-05
DAV:  20    -0.137910455802E+04   -0.14188E-07   -0.11719E-09  3072   0.433E-05    0.837E-06
DAV:  21    -0.137910455803E+04   -0.65484E-08   -0.28263E-10  3072   0.231E-05
   5 F= -.13985057E+04 E0= -.13985057E+04  d E =0.912849E-03  mag=     0.0000
       N       E                     dE             d eps       ncg     rms          rms(c)
DAV:   1    -0.137910366374E+04    0.89428E-03   -0.11781E+00  5120   0.107E+00    0.105E-01
DAV:   2    -0.137910396629E+04   -0.30255E-03   -0.59939E-03  5376   0.785E-02    0.632E-02
DAV:   3    -0.137910387633E+04    0.89957E-04   -0.59537E-04  6016   0.258E-02    0.211E-02
DAV:   4    -0.137910387736E+04   -0.10214E-05   -0.85426E-05  6048   0.926E-03    0.131E-02
DAV:   5    -0.137910387636E+04    0.99392E-06   -0.62533E-06  5760   0.285E-03    0.634E-03
DAV:   6    -0.137910387594E+04    0.42054E-06   -0.15302E-06  6464   0.208E-03    0.184E-03
DAV:   7    -0.137910387594E+04    0.32014E-09   -0.52137E-07  6592   0.944E-04    0.103E-03
DAV:   8    -0.137910387611E+04   -0.16429E-06   -0.86328E-08  5312   0.414E-04    0.624E-04
DAV:   9    -0.137910387629E+04   -0.18143E-06   -0.53228E-08  4512   0.432E-04    0.241E-04
DAV:  10    -0.137910387645E+04   -0.15995E-06   -0.45024E-08  4672   0.310E-04    0.213E-04
DAV:  11    -0.137910387662E+04   -0.17017E-06   -0.12498E-08  3744   0.159E-04    0.122E-04
DAV:  12    -0.137910387679E+04   -0.17614E-06   -0.11116E-08  3552   0.128E-04    0.883E-05
DAV:  13    -0.137910387688E+04   -0.86555E-07   -0.65280E-09  3584   0.923E-05    0.605E-05
DAV:  14    -0.137910387694E+04   -0.60361E-07   -0.27241E-09  3072   0.689E-05    0.365E-05
DAV:  15    -0.137910387700E+04   -0.55283E-07   -0.27962E-09  3136   0.611E-05    0.368E-05
DAV:  16    -0.137910387703E+04   -0.36220E-07   -0.19090E-09  3072   0.594E-05    0.261E-05
DAV:  17    -0.137910387706E+04   -0.24287E-07   -0.16270E-09  3072   0.543E-05    0.150E-05
DAV:  18    -0.137910387707E+04   -0.14450E-07   -0.91606E-10  3072   0.363E-05    0.203E-05
DAV:  19    -0.137910387707E+04   -0.20373E-08   -0.20446E-10  2944   0.200E-05
   6 F= -.13985051E+04 E0= -.13985051E+04  d E =0.560590E-03  mag=     0.0000
       N       E                     dE             d eps       ncg     rms          rms(c)
DAV:   1    -0.137910398488E+04   -0.10781E-03   -0.11783E+00  5120   0.109E+00    0.135E-01
DAV:   2    -0.137910437916E+04   -0.39429E-03   -0.71526E-03  5312   0.887E-02    0.877E-02
DAV:   3    -0.137910428517E+04    0.93997E-04   -0.89257E-04  6272   0.387E-02    0.302E-02
DAV:   4    -0.137910429125E+04   -0.60859E-05   -0.13963E-04  5920   0.137E-02    0.181E-02
DAV:   5    -0.137910428774E+04    0.35081E-05   -0.20232E-05  6176   0.642E-03    0.845E-03
DAV:   6    -0.137910428646E+04    0.12822E-05   -0.41196E-06  6784   0.331E-03    0.311E-03
DAV:   7    -0.137910428635E+04    0.11723E-06   -0.12456E-06  6592   0.191E-03    0.143E-03
DAV:   8    -0.137910428651E+04   -0.16857E-06   -0.35365E-07  6336   0.107E-03    0.983E-04
DAV:   9    -0.137910428694E+04   -0.42957E-06   -0.15920E-07  5536   0.105E-03    0.516E-04
DAV:  10    -0.137910428742E+04   -0.47656E-06   -0.17197E-07  5344   0.818E-04    0.374E-04
DAV:  11    -0.137910428798E+04   -0.56119E-06   -0.11960E-07  5312   0.529E-04    0.326E-04
DAV:  12    -0.137910428840E+04   -0.41765E-06   -0.27710E-08  4224   0.274E-04    0.179E-04
DAV:  13    -0.137910428876E+04   -0.36435E-06   -0.18758E-08  3936   0.170E-04    0.108E-04
DAV:  14    -0.137910428904E+04   -0.27260E-06   -0.89086E-09  3552   0.958E-05    0.627E-05
DAV:  15    -0.137910428924E+04   -0.20288E-06   -0.63222E-09  3392   0.674E-05    0.485E-05
DAV:  16    -0.137910428938E+04   -0.14211E-06   -0.50928E-09  3264   0.712E-05    0.249E-05
DAV:  17    -0.137910428945E+04   -0.72861E-07   -0.39335E-09  3168   0.700E-05    0.319E-05
DAV:  18    -0.137910428948E+04   -0.22366E-07   -0.19048E-09  3136   0.562E-05    0.261E-05
DAV:  19    -0.137910428950E+04   -0.23661E-07   -0.95988E-10  3072   0.382E-05    0.113E-05
DAV:  20    -0.137910428951E+04   -0.10754E-07   -0.43143E-10  3072   0.269E-05    0.103E-05
DAV:  21    -0.137910428951E+04   -0.32014E-08   -0.83861E-11  2944   0.166E-05
   7 F= -.13985059E+04 E0= -.13985059E+04  d E =-.781964E-03  mag=     0.0000
       N       E                     dE             d eps       ncg     rms          rms(c)
DAV:   1    -0.137910440194E+04   -0.11243E-03   -0.11620E+00  5120   0.113E+00    0.194E-01
DAV:   2    -0.137910527677E+04   -0.87483E-03   -0.12129E-02  5600   0.107E-01    0.136E-01
DAV:   3    -0.137910509719E+04    0.17958E-03   -0.13210E-03  6304   0.499E-02    0.686E-02
DAV:   4    -0.137910509373E+04    0.34677E-05   -0.33060E-04  6272   0.240E-02    0.219E-02
DAV:   5    -0.137910508778E+04    0.59453E-05   -0.54816E-05  5568   0.112E-02    0.119E-02
DAV:   6    -0.137910508589E+04    0.18932E-05   -0.13592E-05  5952   0.495E-03    0.527E-03
DAV:   7    -0.137910508533E+04    0.55833E-06   -0.40646E-06  6592   0.299E-03    0.251E-03
DAV:   8    -0.137910508522E+04    0.10952E-06   -0.77678E-07  5824   0.164E-03    0.154E-03
DAV:   9    -0.137910508526E+04   -0.37253E-07   -0.44701E-07  5984   0.123E-03    0.909E-04
DAV:  10    -0.137910508570E+04   -0.44363E-06   -0.22950E-07  5792   0.106E-03    0.634E-04
DAV:  11    -0.137910508633E+04   -0.63295E-06   -0.18957E-07  5312   0.100E-03    0.350E-04
DAV:  12    -0.137910508695E+04   -0.61924E-06   -0.15553E-07  5056   0.553E-04    0.329E-04
DAV:  13    -0.137910508723E+04   -0.27659E-06   -0.17152E-08  4224   0.170E-04    0.228E-04
DAV:  14    -0.137910508760E+04   -0.37173E-06   -0.13895E-08  3712   0.129E-04    0.119E-04
DAV:  15    -0.137910508795E+04   -0.34727E-06   -0.13408E-08  3680   0.113E-04    0.674E-05
DAV:  16    -0.137910508816E+04   -0.21281E-06   -0.69251E-09  3424   0.728E-05    0.552E-05
DAV:  17    -0.137910508828E+04   -0.12250E-06   -0.42399E-09  3136   0.545E-05    0.393E-05
DAV:  18    -0.137910508837E+04   -0.82859E-07   -0.39725E-09  3104   0.637E-05    0.197E-05
DAV:  19    -0.137910508839E+04   -0.25480E-07   -0.23169E-09  3136   0.557E-05    0.235E-05
DAV:  20    -0.137910508840E+04   -0.82800E-08   -0.10156E-09  3072   0.403E-05
   8 F= -.13985062E+04 E0= -.13985062E+04  d E =-.261547E-03  mag=     0.0000
       N       E                     dE             d eps       ncg     rms          rms(c)
DAV:   1    -0.137910394697E+04    0.11414E-02   -0.11707E+00  5120   0.107E+00    0.315E-01
DAV:   2    -0.137910462563E+04   -0.67865E-03   -0.11639E-02  5664   0.111E-01    0.256E-01
DAV:   3    -0.137910449702E+04    0.12860E-03   -0.35521E-03  5792   0.939E-02    0.604E-02
DAV:   4    -0.137910443630E+04    0.60726E-04   -0.90417E-04  5600   0.386E-02    0.347E-02
DAV:   5    -0.137910442168E+04    0.14612E-04   -0.16266E-04  6368   0.179E-02    0.166E-02
DAV:   6    -0.137910441901E+04    0.26771E-05   -0.31673E-05  6336   0.758E-03    0.743E-03
DAV:   7    -0.137910441793E+04    0.10799E-05   -0.39742E-06  6784   0.272E-03    0.359E-03
DAV:   8    -0.137910441797E+04   -0.38301E-07   -0.13991E-06  6368   0.175E-03    0.183E-03
DAV:   9    -0.137910441846E+04   -0.48945E-06   -0.55858E-07  5760   0.128E-03    0.102E-03
DAV:  10    -0.137910441944E+04   -0.97946E-06   -0.26619E-07  5408   0.881E-04    0.584E-04
DAV:  11    -0.137910442063E+04   -0.11962E-05   -0.18498E-07  5184   0.767E-04    0.355E-04
DAV:  12    -0.137910442162E+04   -0.99181E-06   -0.10341E-07  4784   0.403E-04    0.325E-04
DAV:  13    -0.137910442220E+04   -0.57918E-06   -0.20413E-08  3968   0.175E-04    0.184E-04
DAV:  14    -0.137910442291E+04   -0.70776E-06   -0.38717E-08  4288   0.180E-04    0.160E-04
DAV:  15    -0.137910442309E+04   -0.18053E-06   -0.71015E-09  3488   0.136E-04    0.997E-05
DAV:  16    -0.137910442330E+04   -0.20738E-06   -0.92062E-09  3616   0.129E-04    0.629E-05
DAV:  17    -0.137910442344E+04   -0.14408E-06   -0.66435E-09  3392   0.133E-04    0.426E-05
DAV:  18    -0.137910442355E+04   -0.10956E-06   -0.65805E-09  3488   0.122E-04    0.331E-05
DAV:  19    -0.137910442360E+04   -0.49913E-07   -0.29142E-09  3072   0.862E-05    0.279E-05
DAV:  20    -0.137910442364E+04   -0.35740E-07   -0.14190E-09  3072   0.466E-05    0.145E-05
DAV:  21    -0.137910442365E+04   -0.14450E-07   -0.53556E-10  3072   0.309E-05    0.123E-05
DAV:  22    -0.137910442366E+04   -0.60099E-08   -0.10172E-10  3072   0.179E-05
   9 F= -.13985059E+04 E0= -.13985059E+04  d E =0.241227E-03  mag=     0.0000
       N       E                     dE             d eps       ncg     rms          rms(c)
DAV:   1    -0.137910421962E+04    0.20404E-03   -0.11497E+00  5120   0.107E+00    0.207E-01
DAV:   2    -0.137910525400E+04   -0.10344E-02   -0.12739E-02  5792   0.932E-02    0.149E-01
DAV:   3    -0.137910508901E+04    0.16499E-03   -0.12892E-03  6464   0.425E-02    0.839E-02
DAV:   4    -0.137910507953E+04    0.94806E-05   -0.35955E-04  5600   0.213E-02    0.305E-02
DAV:   5    -0.137910506324E+04    0.16287E-04   -0.15890E-04  5536   0.172E-02    0.122E-02
DAV:   6    -0.137910506380E+04   -0.56237E-06   -0.22281E-05  5440   0.567E-03    0.548E-03
DAV:   7    -0.137910506534E+04   -0.15353E-05   -0.45163E-06  6112   0.301E-03    0.259E-03
DAV:   8    -0.137910506671E+04   -0.13674E-05   -0.70233E-07  5664   0.115E-03    0.146E-03
DAV:   9    -0.137910506879E+04   -0.20822E-05   -0.57708E-07  5472   0.124E-03    0.111E-03
DAV:  10    -0.137910507095E+04   -0.21632E-05   -0.30960E-07  5120   0.732E-04    0.840E-04
DAV:  11    -0.137910507250E+04   -0.15525E-05   -0.36165E-07  5280   0.714E-04    0.535E-04
DAV:  12    -0.137910507358E+04   -0.10804E-05   -0.82715E-08  4896   0.392E-04    0.375E-04
DAV:  13    -0.137910507429E+04   -0.70386E-06   -0.43801E-08  4544   0.240E-04    0.185E-04
DAV:  14    -0.137910507486E+04   -0.56793E-06   -0.26772E-08  4192   0.144E-04    0.985E-05
DAV:  15    -0.137910507512E+04   -0.26905E-06   -0.72704E-09  3456   0.823E-05    0.700E-05
DAV:  16    -0.137910507538E+04   -0.26045E-06   -0.99856E-09  3584   0.734E-05    0.494E-05
DAV:  17    -0.137910507550E+04   -0.11055E-06   -0.31965E-09  3136   0.571E-05    0.296E-05
DAV:  18    -0.137910507556E+04   -0.61293E-07   -0.25364E-09  3072   0.503E-05    0.388E-05
DAV:  19    -0.137910507559E+04   -0.33499E-07   -0.12829E-09  3072   0.384E-05    0.319E-05
DAV:  20    -0.137910507561E+04   -0.19427E-07   -0.85856E-10  3072   0.362E-05    0.869E-06
DAV:  21    -0.137910507562E+04   -0.11176E-07   -0.46699E-10  3072   0.313E-05    0.185E-05
DAV:  22    -0.137910507563E+04   -0.45111E-08   -0.89339E-11  3072   0.174E-05
  10 F= -.13985066E+04 E0= -.13985066E+04  d E =-.665233E-03  mag=    -0.0000
       N       E                     dE             d eps       ncg     rms          rms(c)
DAV:   1    -0.137910443712E+04    0.63850E-03   -0.60936E-01  5120   0.790E-01    0.147E-01
DAV:   2    -0.137910500497E+04   -0.56785E-03   -0.80018E-03  5728   0.813E-02    0.988E-02
DAV:   3    -0.137910490997E+04    0.95002E-04   -0.81377E-04  6272   0.386E-02    0.607E-02
DAV:   4    -0.137910489644E+04    0.13528E-04   -0.24125E-04  5568   0.223E-02    0.210E-02
DAV:   5    -0.137910489211E+04    0.43265E-05   -0.60850E-05  5536   0.119E-02    0.103E-02
DAV:   6    -0.137910489112E+04    0.99911E-06   -0.14218E-05  6400   0.562E-03    0.514E-03
DAV:   7    -0.137910489103E+04    0.82902E-07   -0.32618E-06  6528   0.279E-03    0.255E-03
DAV:   8    -0.137910489133E+04   -0.30185E-06   -0.38722E-07  6176   0.131E-03    0.141E-03
DAV:   9    -0.137910489224E+04   -0.91066E-06   -0.42054E-07  5568   0.150E-03    0.739E-04
DAV:  10    -0.137910489323E+04   -0.98597E-06   -0.29579E-07  5248   0.943E-04    0.775E-04
DAV:  11    -0.137910489426E+04   -0.10343E-05   -0.14167E-07  5600   0.619E-04    0.386E-04
DAV:  12    -0.137910489518E+04   -0.91456E-06   -0.91072E-08  4864   0.550E-04    0.286E-04
DAV:  13    -0.137910489572E+04   -0.53893E-06   -0.46393E-08  4448   0.279E-04    0.217E-04
DAV:  14    -0.137910489610E+04   -0.38282E-06   -0.10413E-08  3520   0.123E-04    0.116E-04
DAV:  15    -0.137910489660E+04   -0.50175E-06   -0.22385E-08  4096   0.113E-04    0.121E-04
DAV:  16    -0.137910489679E+04   -0.18593E-06   -0.45202E-09  3392   0.773E-05    0.535E-05
DAV:  17    -0.137910489695E+04   -0.15828E-06   -0.41143E-09  3200   0.635E-05    0.437E-05
DAV:  18    -0.137910489703E+04   -0.80821E-07   -0.21201E-09  3072   0.463E-05    0.321E-05
DAV:  19    -0.137910489708E+04   -0.52270E-07   -0.22374E-09  3072   0.526E-05    0.218E-05
DAV:  20    -0.137910489709E+04   -0.12791E-07   -0.94626E-10  3136   0.419E-05    0.208E-05
DAV:  21    -0.137910489710E+04   -0.84547E-08   -0.49348E-10  3072   0.314E-05
  11 F= -.13985062E+04 E0= -.13985062E+04  d E =0.421518E-03  mag=    -0.0000
       N       E                     dE             d eps       ncg     rms          rms(c)
DAV:   1    -0.137910402707E+04    0.87002E-03   -0.61375E-02  5120   0.139E-01    0.748E-02
DAV:   2    -0.137910407365E+04   -0.46580E-04   -0.46532E-04  5376   0.178E-02    0.437E-02
DAV:   3    -0.137910409779E+04   -0.24140E-04   -0.63884E-05  5728   0.846E-03    0.124E-02
DAV:   4    -0.137910409803E+04   -0.23382E-06   -0.22495E-05  6240   0.574E-03    0.486E-03
DAV:   5    -0.137910409780E+04    0.22814E-06   -0.23329E-06  6144   0.175E-03    0.205E-03
DAV:   6    -0.137910409784E+04   -0.37689E-07   -0.87312E-07  4832   0.103E-03    0.124E-03
DAV:   7    -0.137910409794E+04   -0.10704E-06   -0.20872E-07  5600   0.662E-04    0.452E-04
DAV:   8    -0.137910409814E+04   -0.19708E-06   -0.57287E-08  4736   0.301E-04    0.305E-04
DAV:   9    -0.137910409839E+04   -0.24536E-06   -0.22562E-08  4032   0.233E-04    0.165E-04
DAV:  10    -0.137910409865E+04   -0.26195E-06   -0.25034E-08  4160   0.212E-04    0.125E-04
DAV:  11    -0.137910409883E+04   -0.18334E-06   -0.14058E-08  3872   0.159E-04    0.887E-05
DAV:  12    -0.137910409895E+04   -0.11660E-06   -0.70331E-09  3424   0.126E-04    0.612E-05
DAV:  13    -0.137910409906E+04   -0.11030E-06   -0.81079E-09  3552   0.121E-04    0.503E-05
DAV:  14    -0.137910409912E+04   -0.59357E-07   -0.72363E-09  3360   0.141E-04    0.305E-05
DAV:  15    -0.137910409915E+04   -0.31185E-07   -0.37991E-09  3104   0.971E-05    0.196E-05
DAV:  16    -0.137910409918E+04   -0.30923E-07   -0.16431E-09  3040   0.426E-05    0.206E-05
DAV:  17    -0.137910409919E+04   -0.14377E-07   -0.75035E-10  3040   0.307E-05    0.158E-05
DAV:  18    -0.137910409920E+04   -0.40018E-08   -0.18187E-10  2944   0.201E-05
  12 F= -.13985054E+04 E0= -.13985054E+04  d E =0.759985E-03  mag=    -0.0000
       N       E                     dE             d eps       ncg     rms          rms(c)
DAV:   1    -0.137910449133E+04   -0.39214E-03   -0.60863E-02  5152   0.139E-01    0.691E-02
DAV:   2    -0.137910454939E+04   -0.58055E-04   -0.38654E-04  5472   0.165E-02    0.417E-02
DAV:   3    -0.137910457933E+04   -0.29942E-04   -0.40329E-05  5760   0.758E-03    0.823E-03
DAV:   4    -0.137910457977E+04   -0.43806E-06   -0.58122E-06  6336   0.325E-03    0.275E-03
DAV:   5    -0.137910457989E+04   -0.12810E-06   -0.87566E-07  5648   0.122E-03    0.146E-03
DAV:   6    -0.137910457998E+04   -0.83091E-07   -0.19383E-07  5856   0.662E-04    0.760E-04
DAV:   7    -0.137910458011E+04   -0.13172E-06   -0.48231E-08  4608   0.358E-04    0.352E-04
DAV:   8    -0.137910458026E+04   -0.15285E-06   -0.37516E-08  4512   0.286E-04    0.210E-04
DAV:   9    -0.137910458040E+04   -0.14204E-06   -0.11626E-08  3648   0.160E-04    0.136E-04
DAV:  10    -0.137910458057E+04   -0.16387E-06   -0.11719E-08  3712   0.142E-04    0.936E-05
DAV:  11    -0.137910458067E+04   -0.10460E-06   -0.58072E-09  3360   0.946E-05    0.685E-05
DAV:  12    -0.137910458075E+04   -0.80894E-07   -0.40403E-09  3200   0.726E-05    0.360E-05
DAV:  13    -0.137910458083E+04   -0.75466E-07   -0.40238E-09  3264   0.634E-05    0.350E-05
DAV:  14    -0.137910458086E+04   -0.29264E-07   -0.19127E-09  3072   0.559E-05    0.241E-05
DAV:  15    -0.137910458088E+04   -0.25131E-07   -0.15339E-09  3072   0.491E-05    0.161E-05
DAV:  16    -0.137910458090E+04   -0.14261E-07   -0.84109E-10  3072   0.353E-05    0.182E-05
DAV:  17    -0.137910458090E+04   -0.61118E-08   -0.38170E-10  2944   0.257E-05
  13 F= -.13985056E+04 E0= -.13985056E+04  d E =-.177737E-03  mag=    -0.0000
       N       E                     dE             d eps       ncg     rms          rms(c)
DAV:   1    -0.137910477675E+04   -0.19585E-03   -0.72545E-02  5184   0.195E-01    0.108E-01
DAV:   2    -0.137910473543E+04    0.41322E-04   -0.12250E-03  5472   0.327E-02    0.608E-02
DAV:   3    -0.137910472904E+04    0.63855E-05   -0.38306E-04  5568   0.182E-02    0.254E-02
DAV:   4    -0.137910472165E+04    0.73888E-05   -0.85525E-05  5760   0.102E-02    0.121E-02
DAV:   5    -0.137910472255E+04   -0.89967E-06   -0.91333E-06  5696   0.359E-03    0.326E-03
DAV:   6    -0.137910472247E+04    0.86206E-07   -0.13470E-06  5376   0.115E-03    0.219E-03
DAV:   7    -0.137910472243E+04    0.38155E-07   -0.55046E-07  4736   0.867E-04    0.671E-04
DAV:   8    -0.137910472251E+04   -0.86147E-07   -0.90963E-08  5280   0.450E-04    0.556E-04
DAV:   9    -0.137910472260E+04   -0.86657E-07   -0.48815E-08  4736   0.338E-04    0.261E-04
DAV:  10    -0.137910472271E+04   -0.11288E-06   -0.16499E-08  3904   0.240E-04    0.158E-04
DAV:  11    -0.137910472285E+04   -0.14053E-06   -0.16338E-08  3888   0.255E-04    0.113E-04
DAV:  12    -0.137910472296E+04   -0.10400E-06   -0.16190E-08  4032   0.172E-04    0.882E-05
DAV:  13    -0.137910472301E+04   -0.56039E-07   -0.27484E-09  3104   0.730E-05    0.709E-05
DAV:  14    -0.137910472309E+04   -0.79366E-07   -0.40162E-09  3200   0.685E-05    0.330E-05
DAV:  15    -0.137910472312E+04   -0.28216E-07   -0.20347E-09  3072   0.594E-05    0.331E-05
DAV:  16    -0.137910472316E+04   -0.33251E-07   -0.17549E-09  3072   0.515E-05    0.292E-05
DAV:  17    -0.137910472318E+04   -0.22847E-07   -0.13192E-09  3072   0.479E-05    0.169E-05
DAV:  18    -0.137910472319E+04   -0.10332E-07   -0.67175E-10  3072   0.325E-05    0.180E-05
DAV:  19    -0.137910472320E+04   -0.10230E-07   -0.37089E-10  3040   0.254E-05    0.179E-05
DAV:  20    -0.137910472320E+04   -0.38126E-08   -0.57573E-12  2816   0.162E-05
  14 F= -.13985059E+04 E0= -.13985059E+04  d E =-.345154E-03  mag=    -0.0000
       N       E                     dE             d eps       ncg     rms          rms(c)
DAV:   1    -0.137910511284E+04   -0.38964E-03   -0.80146E-02  4928   0.192E-01    0.119E-01
DAV:   2    -0.137910499655E+04    0.11629E-03   -0.11663E-03  5088   0.253E-02    0.678E-02
DAV:   3    -0.137910496334E+04    0.33206E-04   -0.57780E-04  5184   0.162E-02    0.228E-02
DAV:   4    -0.137910495347E+04    0.98743E-05   -0.60478E-05  5120   0.528E-03    0.143E-02
DAV:   5    -0.137910495266E+04    0.81417E-06   -0.15942E-05  5536   0.276E-03    0.313E-03
DAV:   6    -0.137910495261E+04    0.44674E-07   -0.15167E-06  4768   0.924E-04    0.110E-03
DAV:   7    -0.137910495273E+04   -0.11399E-06   -0.24359E-07  5248   0.362E-04    0.693E-04
DAV:   8    -0.137910495280E+04   -0.70213E-07   -0.25525E-08  3904   0.181E-04    0.307E-04
DAV:   9    -0.137910495288E+04   -0.87981E-07   -0.13946E-08  3776   0.131E-04    0.121E-04
DAV:  10    -0.137910495294E+04   -0.52663E-07   -0.30469E-09  3136   0.752E-05    0.673E-05
DAV:  11    -0.137910495300E+04   -0.61118E-07   -0.22868E-09  3072   0.692E-05    0.418E-05
DAV:  12    -0.137910495304E+04   -0.46362E-07   -0.25454E-09  3104   0.694E-05    0.293E-05
DAV:  13    -0.137910495308E+04   -0.37573E-07   -0.29776E-09  3136   0.775E-05    0.220E-05
DAV:  14    -0.137910495309E+04   -0.13417E-07   -0.22159E-09  3072   0.675E-05    0.177E-05
DAV:  15    -0.137910495310E+04   -0.87457E-08   -0.10564E-09  3072   0.406E-05
  15 F= -.13985062E+04 E0= -.13985062E+04  d E =-.222095E-03  mag=     0.0000
       N       E                     dE             d eps       ncg     rms          rms(c)
DAV:   1    -0.137910496505E+04   -0.11953E-04   -0.79422E-02  4928   0.195E-01    0.115E-01
DAV:   2    -0.137910489177E+04    0.73273E-04   -0.12100E-03  5088   0.247E-02    0.685E-02
DAV:   3    -0.137910486140E+04    0.30373E-04   -0.62041E-04  5184   0.170E-02    0.241E-02
DAV:   4    -0.137910484989E+04    0.11516E-04   -0.63644E-05  5184   0.551E-03    0.152E-02
DAV:   5    -0.137910484845E+04    0.14396E-05   -0.20379E-05  4992   0.294E-03    0.341E-03
DAV:   6    -0.137910484846E+04   -0.18423E-07   -0.19494E-06  4800   0.996E-04    0.114E-03
DAV:   7    -0.137910484857E+04   -0.10722E-06   -0.32043E-07  5088   0.394E-04    0.697E-04
DAV:   8    -0.137910484869E+04   -0.11895E-06   -0.41290E-08  3968   0.179E-04    0.263E-04
DAV:   9    -0.137910484879E+04   -0.10319E-06   -0.17686E-08  3744   0.108E-04    0.153E-04
DAV:  10    -0.137910484890E+04   -0.10533E-06   -0.79956E-09  3424   0.105E-04    0.782E-05
DAV:  11    -0.137910484896E+04   -0.62559E-07   -0.53608E-09  3264   0.999E-05    0.590E-05
DAV:  12    -0.137910484902E+04   -0.54206E-07   -0.52972E-09  3264   0.103E-04    0.360E-05
DAV:  13    -0.137910484907E+04   -0.52678E-07   -0.65321E-09  3312   0.100E-04    0.309E-05
DAV:  14    -0.137910484908E+04   -0.14246E-07   -0.19144E-09  2944   0.635E-05    0.220E-05
DAV:  15    -0.137910484911E+04   -0.22250E-07   -0.18117E-09  3008   0.488E-05    0.211E-05
DAV:  16    -0.137910484911E+04   -0.66793E-08   -0.78997E-10  2944   0.391E-05
  16 F= -.13985058E+04 E0= -.13985058E+04  d E =0.323623E-03  mag=     0.0000
       N       E                     dE             d eps       ncg     rms          rms(c)
DAV:   1    -0.137910505137E+04   -0.20227E-03   -0.76546E-02  4960   0.212E-01    0.998E-02
DAV:   2    -0.137910504707E+04    0.42988E-05   -0.11237E-03  5120   0.244E-02    0.627E-02
DAV:   3    -0.137910502030E+04    0.26773E-04   -0.47388E-04  5536   0.163E-02    0.194E-02
DAV:   4    -0.137910501365E+04    0.66495E-05   -0.55095E-05  5408   0.540E-03    0.133E-02
DAV:   5    -0.137910501196E+04    0.16918E-05   -0.20010E-05  5024   0.310E-03    0.353E-03
DAV:   6    -0.137910501212E+04   -0.16179E-06   -0.17088E-06  4736   0.103E-03    0.139E-03
DAV:   7    -0.137910501225E+04   -0.12557E-06   -0.37309E-07  4992   0.429E-04    0.552E-04
DAV:   8    -0.137910501241E+04   -0.16228E-06   -0.52475E-08  4064   0.213E-04    0.335E-04
DAV:   9    -0.137910501252E+04   -0.11404E-06   -0.13618E-08  3712   0.113E-04    0.176E-04
DAV:  10    -0.137910501264E+04   -0.11815E-06   -0.88010E-09  3616   0.101E-04    0.938E-05
DAV:  11    -0.137910501272E+04   -0.76645E-07   -0.39315E-09  3200   0.764E-05    0.808E-05
DAV:  12    -0.137910501280E+04   -0.79512E-07   -0.47105E-09  3168   0.826E-05    0.455E-05
DAV:  13    -0.137910501285E+04   -0.51339E-07   -0.48872E-09  3248   0.966E-05    0.266E-05
DAV:  14    -0.137910501287E+04   -0.21057E-07   -0.33022E-09  3072   0.865E-05    0.207E-05
DAV:  15    -0.137910501289E+04   -0.17404E-07   -0.15256E-09  3072   0.477E-05    0.158E-05
DAV:  16    -0.137910501290E+04   -0.84110E-08   -0.47539E-10  3072   0.243E-05
  17 F= -.13985062E+04 E0= -.13985062E+04  d E =-.374007E-03  mag=    -0.0000
       N       E                     dE             d eps       ncg     rms          rms(c)
DAV:   1    -0.137910531423E+04   -0.30134E-03   -0.76546E-02  4928   0.193E-01    0.990E-02
DAV:   2    -0.137910526125E+04    0.52973E-04   -0.75534E-04  5120   0.205E-02    0.567E-02
DAV:   3    -0.137910524600E+04    0.15252E-04   -0.29477E-04  5344   0.114E-02    0.157E-02
DAV:   4    -0.137910524107E+04    0.49331E-05   -0.36391E-05  5216   0.405E-03    0.918E-03
DAV:   5    -0.137910524087E+04    0.19449E-06   -0.91938E-06  5536   0.215E-03    0.201E-03
DAV:   6    -0.137910524091E+04   -0.32363E-07   -0.55090E-07  4736   0.680E-04    0.100E-03
DAV:   7    -0.137910524090E+04    0.43365E-08   -0.90572E-08  4544   0.261E-04
  18 F= -.13985064E+04 E0= -.13985064E+04  d E =-.166380E-03  mag=    -0.0000
       N       E                     dE             d eps       ncg     rms          rms(c)
DAV:   1    -0.137910469822E+04    0.54269E-03   -0.76201E-02  5056   0.195E-01    0.987E-02
DAV:   2    -0.137910465128E+04    0.46942E-04   -0.71743E-04  5248   0.197E-02    0.573E-02
DAV:   3    -0.137910464163E+04    0.96419E-05   -0.32853E-04  5664   0.120E-02    0.173E-02
DAV:   4    -0.137910463556E+04    0.60744E-05   -0.38707E-05  5376   0.404E-03    0.106E-02
DAV:   5    -0.137910463504E+04    0.51680E-06   -0.11757E-05  4896   0.222E-03    0.207E-03
DAV:   6    -0.137910463509E+04   -0.44602E-07   -0.74826E-07  4832   0.719E-04    0.948E-04
DAV:   7    -0.137910463511E+04   -0.19412E-07   -0.16379E-07  4896   0.295E-04    0.490E-04
DAV:   8    -0.137910463516E+04   -0.55559E-07   -0.31804E-08  3936   0.179E-04    0.183E-04
DAV:   9    -0.137910463520E+04   -0.41575E-07   -0.85658E-09  3488   0.125E-04    0.109E-04
DAV:  10    -0.137910463527E+04   -0.64712E-07   -0.77492E-09  3472   0.135E-04    0.732E-05
DAV:  11    -0.137910463531E+04   -0.38170E-07   -0.55798E-09  3264   0.130E-04    0.555E-05
DAV:  12    -0.137910463534E+04   -0.34808E-07   -0.49364E-09  3184   0.121E-04    0.349E-05
DAV:  13    -0.137910463537E+04   -0.30355E-07   -0.41447E-09  3104   0.102E-04    0.328E-05
DAV:  14    -0.137910463538E+04   -0.12602E-07   -0.13023E-09  3072   0.513E-05    0.231E-05
DAV:  15    -0.137910463540E+04   -0.19223E-07   -0.11921E-09  3008   0.422E-05    0.272E-05
DAV:  16    -0.137910463541E+04   -0.47876E-08   -0.40975E-10  2976   0.292E-05
  19 F= -.13985056E+04 E0= -.13985056E+04  d E =0.746523E-03  mag=     0.0000
       N       E                     dE             d eps       ncg     rms          rms(c)
DAV:   1    -0.137910475966E+04   -0.12426E-03   -0.80623E-02  5024   0.218E-01    0.119E-01
DAV:   2    -0.137910468800E+04    0.71662E-04   -0.15561E-03  5216   0.304E-02    0.721E-02
DAV:   3    -0.137910464568E+04    0.42321E-04   -0.79128E-04  5440   0.198E-02    0.273E-02
DAV:   4    -0.137910463217E+04    0.13508E-04   -0.88818E-05  5152   0.645E-03    0.173E-02
DAV:   5    -0.137910462985E+04    0.23278E-05   -0.29004E-05  5184   0.364E-03    0.376E-03
DAV:   6    -0.137910462990E+04   -0.51688E-07   -0.23965E-06  5216   0.124E-03    0.128E-03
DAV:   7    -0.137910463007E+04   -0.17464E-06   -0.28654E-07  4832   0.413E-04    0.845E-04
DAV:   8    -0.137910463027E+04   -0.19437E-06   -0.60084E-08  4352   0.269E-04    0.391E-04
DAV:   9    -0.137910463043E+04   -0.16681E-06   -0.27516E-08  4064   0.187E-04    0.204E-04
DAV:  10    -0.137910463059E+04   -0.15630E-06   -0.11758E-08  3744   0.125E-04    0.138E-04
DAV:  11    -0.137910463071E+04   -0.11649E-06   -0.44488E-09  3184   0.871E-05    0.869E-05
DAV:  12    -0.137910463083E+04   -0.12180E-06   -0.64655E-09  3408   0.842E-05    0.512E-05
DAV:  13    -0.137910463091E+04   -0.82175E-07   -0.38065E-09  3136   0.776E-05    0.395E-05
DAV:  14    -0.137910463097E+04   -0.61074E-07   -0.35136E-09  3088   0.734E-05    0.318E-05
DAV:  15    -0.137910463100E+04   -0.29147E-07   -0.20160E-09  3072   0.569E-05    0.237E-05
DAV:  16    -0.137910463103E+04   -0.29962E-07   -0.15368E-09  3040   0.444E-05    0.188E-05
DAV:  17    -0.137910463105E+04   -0.16560E-07   -0.73800E-10  3040   0.297E-05    0.246E-05
DAV:  18    -0.137910463105E+04   -0.70722E-08   -0.16266E-10  2896   0.208E-05
  20 F= -.13985059E+04 E0= -.13985059E+04  d E =-.272892E-03  mag=     0.0000
       N       E                     dE             d eps       ncg     rms          rms(c)
DAV:   1    -0.137910522515E+04   -0.59410E-03   -0.80290E-02  4352   0.210E-01    0.117E-01
DAV:   2    -0.137910513158E+04    0.93566E-04   -0.12350E-03  4480   0.259E-02    0.686E-02
DAV:   3    -0.137910509817E+04    0.33407E-04   -0.65961E-04  4544   0.177E-02    0.249E-02
DAV:   4    -0.137910508529E+04    0.12885E-04   -0.59751E-05  4576   0.552E-03    0.155E-02
DAV:   5    -0.137910508341E+04    0.18735E-05   -0.22942E-05  4864   0.329E-03    0.314E-03
DAV:   6    -0.137910508365E+04   -0.23982E-06   -0.21237E-06  4784   0.111E-03    0.108E-03
DAV:   7    -0.137910508408E+04   -0.42625E-06   -0.32065E-07  5024   0.418E-04    0.100E-03
DAV:   8    -0.137910508465E+04   -0.56459E-06   -0.59680E-08  4192   0.228E-04    0.350E-04
DAV:   9    -0.137910508524E+04   -0.59356E-06   -0.45808E-08  4032   0.162E-04    0.303E-04
DAV:  10    -0.137910508574E+04   -0.49984E-06   -0.13897E-08  3712   0.111E-04    0.144E-04
DAV:  11    -0.137910508626E+04   -0.52259E-06   -0.18930E-08  3904   0.113E-04    0.856E-05
DAV:  12    -0.137910508662E+04   -0.35878E-06   -0.10946E-08  3648   0.913E-05    0.680E-05
DAV:  13    -0.137910508684E+04   -0.21966E-06   -0.66946E-09  3488   0.935E-05    0.454E-05
DAV:  14    -0.137910508696E+04   -0.12443E-06   -0.47713E-09  3136   0.958E-05    0.303E-05
DAV:  15    -0.137910508703E+04   -0.61700E-07   -0.30873E-09  3072   0.758E-05    0.289E-05
DAV:  16    -0.137910508706E+04   -0.32858E-07   -0.18725E-09  3072   0.543E-05    0.155E-05
DAV:  17    -0.137910508707E+04   -0.76398E-08   -0.82936E-10  3072   0.381E-05
  21 F= -.13985062E+04 E0= -.13985062E+04  d E =-.346404E-03  mag=     0.0000
       N       E                     dE             d eps       ncg     rms          rms(c)
DAV:   1    -0.137910491006E+04    0.17700E-03   -0.79901E-02  4352   0.208E-01    0.116E-01
DAV:   2    -0.137910481078E+04    0.99278E-04   -0.11718E-03  4416   0.247E-02    0.679E-02
DAV:   3    -0.137910477482E+04    0.35961E-04   -0.62418E-04  4720   0.176E-02    0.244E-02
DAV:   4    -0.137910476279E+04    0.12031E-04   -0.59882E-05  4672   0.551E-03    0.152E-02
DAV:   5    -0.137910476138E+04    0.14090E-05   -0.21952E-05  4880   0.318E-03    0.300E-03
DAV:   6    -0.137910476176E+04   -0.37854E-06   -0.16812E-06  4704   0.103E-03    0.109E-03
DAV:   7    -0.137910476231E+04   -0.54995E-06   -0.33014E-07  5216   0.432E-04    0.827E-04
DAV:   8    -0.137910476294E+04   -0.63342E-06   -0.55745E-08  4192   0.225E-04    0.321E-04
DAV:   9    -0.137910476362E+04   -0.67359E-06   -0.55955E-08  4288   0.188E-04    0.255E-04
DAV:  10    -0.137910476421E+04   -0.58895E-06   -0.28822E-08  4304   0.149E-04    0.144E-04
DAV:  11    -0.137910476459E+04   -0.38825E-06   -0.19009E-08  4000   0.125E-04    0.989E-05
DAV:  12    -0.137910476482E+04   -0.22291E-06   -0.80112E-09  3424   0.100E-04    0.673E-05
DAV:  13    -0.137910476502E+04   -0.20303E-06   -0.11321E-08  3776   0.106E-04    0.489E-05
DAV:  14    -0.137910476510E+04   -0.81840E-07   -0.29004E-09  3072   0.782E-05    0.354E-05
DAV:  15    -0.137910476520E+04   -0.98473E-07   -0.49224E-09  3264   0.791E-05    0.236E-05
DAV:  16    -0.137910476523E+04   -0.30079E-07   -0.17055E-09  3008   0.607E-05    0.233E-05
DAV:  17    -0.137910476525E+04   -0.19747E-07   -0.63029E-10  2976   0.358E-05    0.110E-05
DAV:  18    -0.137910476527E+04   -0.24869E-07   -0.59319E-10  3040   0.375E-05    0.166E-05
DAV:  19    -0.137910476528E+04   -0.94587E-08   -0.14697E-10  2912   0.215E-05
  22 F= -.13985059E+04 E0= -.13985059E+04  d E =0.293743E-03  mag=     0.0000
       N       E                     dE             d eps       ncg     rms          rms(c)
DAV:   1    -0.137910491436E+04   -0.14909E-03   -0.77799E-02  4448   0.208E-01    0.106E-01
DAV:   2    -0.137910487052E+04    0.43835E-04   -0.11470E-03  4640   0.247E-02    0.637E-02
DAV:   3    -0.137910484960E+04    0.20929E-04   -0.55225E-04  4864   0.162E-02    0.219E-02
DAV:   4    -0.137910483933E+04    0.10265E-04   -0.63799E-05  4576   0.542E-03    0.144E-02
DAV:   5    -0.137910483763E+04    0.17008E-05   -0.20656E-05  4800   0.306E-03    0.349E-03
DAV:   6    -0.137910483764E+04   -0.12486E-07   -0.23403E-06  4672   0.112E-03    0.110E-03
DAV:   7    -0.137910483784E+04   -0.19799E-06   -0.40406E-07  5216   0.453E-04    0.879E-04
DAV:   8    -0.137910483809E+04   -0.25093E-06   -0.54060E-08  4032   0.188E-04    0.347E-04
DAV:   9    -0.137910483833E+04   -0.23526E-06   -0.32963E-08  4048   0.142E-04    0.191E-04
DAV:  10    -0.137910483856E+04   -0.23075E-06   -0.90992E-09  3424   0.959E-05    0.127E-04
DAV:  11    -0.137910483875E+04   -0.19315E-06   -0.97505E-09  3776   0.978E-05    0.709E-05
DAV:  12    -0.137910483892E+04   -0.17029E-06   -0.10576E-08  3648   0.137E-04    0.488E-05
DAV:  13    -0.137910483900E+04   -0.82800E-07   -0.64585E-09  3264   0.130E-04    0.377E-05
DAV:  14    -0.137910483907E+04   -0.62326E-07   -0.34572E-09  3072   0.809E-05    0.234E-05
DAV:  15    -0.137910483912E+04   -0.54861E-07   -0.31067E-09  3104   0.625E-05    0.168E-05
DAV:  16    -0.137910483914E+04   -0.18365E-07   -0.12577E-09  3072   0.431E-05    0.131E-05
DAV:  17    -0.137910483915E+04   -0.15032E-07   -0.70539E-10  3040   0.276E-05    0.108E-05
DAV:  18    -0.137910483916E+04   -0.68540E-08   -0.23758E-10  3040   0.193E-05
  23 F= -.13985061E+04 E0= -.13985061E+04  d E =-.187024E-03  mag=     0.0000
       N       E                     dE             d eps       ncg     rms          rms(c)
DAV:   1    -0.137910513419E+04   -0.29503E-03   -0.79877E-02  4448   0.196E-01    0.115E-01
DAV:   2    -0.137910503225E+04    0.10193E-03   -0.10752E-03  4960   0.230E-02    0.655E-02
DAV:   3    -0.137910500376E+04    0.28497E-04   -0.49090E-04  4896   0.144E-02    0.211E-02
DAV:   4    -0.137910499514E+04    0.86132E-05   -0.50249E-05  4512   0.482E-03    0.135E-02
DAV:   5    -0.137910499446E+04    0.68771E-06   -0.14309E-05  5152   0.264E-03    0.306E-03
DAV:   6    -0.137910499448E+04   -0.23851E-07   -0.14778E-06  4864   0.901E-04    0.111E-03
DAV:   7    -0.137910499462E+04   -0.14187E-06   -0.26045E-07  4928   0.373E-04    0.799E-04
DAV:   8    -0.137910499482E+04   -0.19766E-06   -0.37244E-08  3936   0.168E-04    0.330E-04
DAV:   9    -0.137910499502E+04   -0.20514E-06   -0.26023E-08  3936   0.128E-04    0.201E-04
DAV:  10    -0.137910499518E+04   -0.15913E-06   -0.47942E-09  3264   0.715E-05    0.121E-04
DAV:  11    -0.137910499539E+04   -0.21086E-06   -0.89810E-09  3616   0.831E-05    0.629E-05
DAV:  12    -0.137910499553E+04   -0.13907E-06   -0.53908E-09  3328   0.834E-05    0.575E-05
DAV:  13    -0.137910499564E+04   -0.10274E-06   -0.50740E-09  3232   0.849E-05    0.325E-05
DAV:  14    -0.137910499568E+04   -0.49375E-07   -0.29151E-09  3072   0.720E-05    0.236E-05
DAV:  15    -0.137910499572E+04   -0.30675E-07   -0.19679E-09  3008   0.497E-05    0.205E-05
DAV:  16    -0.137910499573E+04   -0.13300E-07   -0.10249E-09  3008   0.349E-05    0.104E-05
DAV:  17    -0.137910499573E+04   -0.54861E-08   -0.36175E-10  3040   0.221E-05
  24 F= -.13985062E+04 E0= -.13985062E+04  d E =-.719040E-04  mag=     0.0000
       N       E                     dE             d eps       ncg     rms          rms(c)
DAV:   1    -0.137910491323E+04    0.82498E-04   -0.81651E-02  4544   0.196E-01    0.125E-01
DAV:   2    -0.137910477713E+04    0.13610E-03   -0.13112E-03  4608   0.258E-02    0.701E-02
DAV:   3    -0.137910473739E+04    0.39741E-04   -0.62105E-04  5152   0.162E-02    0.243E-02
DAV:   4    -0.137910472700E+04    0.10385E-04   -0.61714E-05  4736   0.520E-03    0.157E-02
DAV:   5    -0.137910472553E+04    0.14749E-05   -0.18165E-05  5344   0.286E-03    0.336E-03
DAV:   6    -0.137910472549E+04    0.38315E-07   -0.17996E-06  4768   0.963E-04    0.114E-03
DAV:   7    -0.137910472564E+04   -0.15297E-06   -0.33808E-07  5216   0.429E-04    0.828E-04
DAV:   8    -0.137910472582E+04   -0.17212E-06   -0.39688E-08  4128   0.185E-04    0.371E-04
DAV:   9    -0.137910472604E+04   -0.22352E-06   -0.31778E-08  4064   0.135E-04    0.203E-04
DAV:  10    -0.137910472621E+04   -0.17406E-06   -0.72584E-09  3424   0.859E-05    0.125E-04
DAV:  11    -0.137910472641E+04   -0.20006E-06   -0.10203E-08  3776   0.849E-05    0.662E-05
DAV:  12    -0.137910472656E+04   -0.14485E-06   -0.68907E-09  3472   0.772E-05    0.573E-05
DAV:  13    -0.137910472666E+04   -0.98851E-07   -0.42225E-09  3200   0.677E-05    0.338E-05
DAV:  14    -0.137910472672E+04   -0.63446E-07   -0.34713E-09  3136   0.565E-05    0.224E-05
DAV:  15    -0.137910472677E+04   -0.45940E-07   -0.23131E-09  3104   0.447E-05    0.188E-05
DAV:  16    -0.137910472679E+04   -0.26805E-07   -0.12495E-09  3072   0.363E-05    0.104E-05
DAV:  17    -0.137910472681E+04   -0.16211E-07   -0.60924E-10  2944   0.266E-05    0.938E-06
DAV:  18    -0.137910472682E+04   -0.98516E-08   -0.24184E-10  3072   0.185E-05
  25 F= -.13985059E+04 E0= -.13985059E+04  d E =0.334355E-03  mag=    -0.0000
       N       E                     dE             d eps       ncg     rms          rms(c)
DAV:   1    -0.137910518958E+04   -0.46277E-03   -0.76062E-02  4512   0.192E-01    0.979E-02
DAV:   2    -0.137910517521E+04    0.14368E-04   -0.97470E-04  4640   0.211E-02    0.585E-02
DAV:   3    -0.137910516589E+04    0.93151E-05   -0.36553E-04  5152   0.124E-02    0.185E-02
DAV:   4    -0.137910515895E+04    0.69434E-05   -0.37145E-05  4608   0.403E-03    0.119E-02
DAV:   5    -0.137910515789E+04    0.10557E-05   -0.16690E-05  4640   0.255E-03    0.234E-03
DAV:   6    -0.137910515804E+04   -0.14740E-06   -0.10978E-06  4672   0.725E-04    0.105E-03
DAV:   7    -0.137910515820E+04   -0.15978E-06   -0.28451E-07  4704   0.378E-04    0.593E-04
DAV:   8    -0.137910515836E+04   -0.15843E-06   -0.47811E-08  4032   0.181E-04    0.282E-04
DAV:   9    -0.137910515854E+04   -0.17507E-06   -0.25367E-08  3936   0.126E-04    0.153E-04
DAV:  10    -0.137910515871E+04   -0.17496E-06   -0.84496E-09  3552   0.814E-05    0.966E-05
DAV:  11    -0.137910515882E+04   -0.11409E-06   -0.53420E-09  3392   0.657E-05    0.537E-05
DAV:  12    -0.137910515893E+04   -0.10659E-06   -0.64400E-09  3456   0.858E-05    0.405E-05
DAV:  13    -0.137910515898E+04   -0.48531E-07   -0.36920E-09  3104   0.898E-05    0.320E-05
DAV:  14    -0.137910515901E+04   -0.30966E-07   -0.24939E-09  3072   0.653E-05    0.169E-05
DAV:  15    -0.137910515904E+04   -0.25539E-07   -0.17297E-09  3008   0.448E-05    0.136E-05
DAV:  16    -0.137910515905E+04   -0.93132E-08   -0.74409E-10  2944   0.290E-05
  26 F= -.13985064E+04 E0= -.13985064E+04  d E =-.495712E-03  mag=    -0.0000
       N       E                     dE             d eps       ncg     rms          rms(c)
DAV:   1    -0.137910402995E+04    0.11291E-02   -0.79362E-02  4352   0.157E-01    0.115E-01
DAV:   2    -0.137910393384E+04    0.96110E-04   -0.11862E-03  4416   0.210E-02    0.680E-02
DAV:   3    -0.137910390325E+04    0.30598E-04   -0.64966E-04  4576   0.167E-02    0.247E-02
DAV:   4    -0.137910389005E+04    0.13201E-04   -0.61675E-05  4320   0.538E-03    0.153E-02
DAV:   5    -0.137910388868E+04    0.13674E-05   -0.22959E-05  4736   0.322E-03    0.290E-03
DAV:   6    -0.137910388897E+04   -0.28929E-06   -0.18777E-06  4704   0.992E-04    0.106E-03
DAV:   7    -0.137910388947E+04   -0.50315E-06   -0.28692E-07  4864   0.379E-04    0.877E-04
DAV:   8    -0.137910389005E+04   -0.58292E-06   -0.69312E-08  4192   0.244E-04    0.285E-04
DAV:   9    -0.137910389061E+04   -0.55872E-06   -0.43910E-08  4160   0.175E-04    0.283E-04
DAV:  10    -0.137910389111E+04   -0.49917E-06   -0.22238E-08  4048   0.128E-04    0.111E-04
DAV:  11    -0.137910389147E+04   -0.36016E-06   -0.13830E-08  3680   0.111E-04    0.785E-05
DAV:  12    -0.137910389173E+04   -0.26012E-06   -0.11128E-08  3648   0.113E-04    0.532E-05
DAV:  13    -0.137910389189E+04   -0.15464E-06   -0.60799E-09  3296   0.984E-05    0.368E-05
DAV:  14    -0.137910389198E+04   -0.96945E-07   -0.38587E-09  3136   0.708E-05    0.221E-05
DAV:  15    -0.137910389206E+04   -0.74360E-07   -0.33419E-09  3136   0.621E-05    0.193E-05
DAV:  16    -0.137910389208E+04   -0.26295E-07   -0.12087E-09  3072   0.428E-05    0.128E-05
DAV:  17    -0.137910389211E+04   -0.24374E-07   -0.68011E-10  3040   0.319E-05    0.117E-05
DAV:  18    -0.137910389212E+04   -0.10390E-07   -0.22985E-10  2944   0.212E-05    0.108E-05
DAV:  19    -0.137910389212E+04   -0.32742E-08    0.71353E-11  2944   0.161E-05
  27 F= -.13985052E+04 E0= -.13985052E+04  d E =0.121794E-02  mag=     0.0000
       N       E                     dE             d eps       ncg     rms          rms(c)
DAV:   1    -0.137910552708E+04   -0.16350E-02   -0.77165E-02  4416   0.158E-01    0.105E-01
DAV:   2    -0.137910545903E+04    0.68047E-04   -0.82801E-04  4592   0.183E-02    0.613E-02
DAV:   3    -0.137910543983E+04    0.19201E-04   -0.45755E-04  4768   0.140E-02    0.206E-02
DAV:   4    -0.137910543071E+04    0.91190E-05   -0.40441E-05  4416   0.445E-03    0.129E-02
DAV:   5    -0.137910542965E+04    0.10684E-05   -0.18664E-05  4512   0.293E-03    0.232E-03
DAV:   6    -0.137910542995E+04   -0.30339E-06   -0.12660E-06  4736   0.862E-04    0.105E-03
DAV:   7    -0.137910543035E+04   -0.40173E-06   -0.22982E-07  4832   0.326E-04    0.833E-04
DAV:   8    -0.137910543090E+04   -0.55054E-06   -0.55923E-08  4064   0.190E-04    0.269E-04
DAV:   9    -0.137910543144E+04   -0.53812E-06   -0.30888E-08  3936   0.133E-04    0.255E-04
DAV:  10    -0.137910543199E+04   -0.55025E-06   -0.17446E-08  3712   0.125E-04    0.111E-04
DAV:  11    -0.137910543247E+04   -0.47854E-06   -0.19641E-08  3872   0.143E-04    0.881E-05
DAV:  12    -0.137910543276E+04   -0.29425E-06   -0.11155E-08  3584   0.140E-04    0.620E-05
DAV:  13    -0.137910543294E+04   -0.17724E-06   -0.80439E-09  3488   0.137E-04    0.397E-05
DAV:  14    -0.137910543305E+04   -0.11241E-06   -0.58358E-09  3296   0.117E-04    0.256E-05
DAV:  15    -0.137910543310E+04   -0.49273E-07   -0.23196E-09  3072   0.718E-05    0.248E-05
DAV:  16    -0.137910543313E+04   -0.31956E-07   -0.12127E-09  3040   0.441E-05    0.171E-05
DAV:  17    -0.137910543315E+04   -0.11438E-07   -0.52665E-10  3072   0.312E-05    0.138E-05
DAV:  18    -0.137910543315E+04   -0.37253E-08   -0.75253E-11  2880   0.181E-05
  28 F= -.13985065E+04 E0= -.13985065E+04  d E =-.132889E-02  mag=     0.0000
       N       E                     dE             d eps       ncg     rms          rms(c)
DAV:   1    -0.137910502516E+04    0.40798E-03   -0.72519E-02  4896   0.197E-01    0.820E-02
DAV:   2    -0.137910505037E+04   -0.25212E-04   -0.58567E-04  5056   0.166E-02    0.502E-02
DAV:   3    -0.137910504847E+04    0.19079E-05   -0.65524E-05  5600   0.655E-03    0.649E-03
DAV:   4    -0.137910504850E+04   -0.39610E-07   -0.62763E-06  5152   0.193E-03    0.300E-03
DAV:   5    -0.137910504886E+04   -0.35313E-06   -0.23394E-06  4992   0.116E-03    0.112E-03
DAV:   6    -0.137910504902E+04   -0.15904E-06   -0.29066E-07  4800   0.468E-04    0.593E-04
DAV:   7    -0.137910504938E+04   -0.36503E-06   -0.48697E-08  3968   0.197E-04    0.246E-04
DAV:   8    -0.137910504971E+04   -0.32636E-06   -0.17634E-08  3840   0.117E-04    0.136E-04
DAV:   9    -0.137910505002E+04   -0.31559E-06   -0.11547E-08  3584   0.970E-05    0.789E-05
DAV:  10    -0.137910505026E+04   -0.23269E-06   -0.80819E-09  3648   0.774E-05    0.484E-05
DAV:  11    -0.137910505043E+04   -0.17537E-06   -0.59961E-09  3328   0.774E-05    0.331E-05
DAV:  12    -0.137910505053E+04   -0.96741E-07   -0.40502E-09  3168   0.803E-05    0.241E-05
DAV:  13    -0.137910505060E+04   -0.73065E-07   -0.32321E-09  3136   0.697E-05    0.147E-05
DAV:  14    -0.137910505066E+04   -0.53784E-07   -0.20115E-09  3040   0.465E-05    0.128E-05
DAV:  15    -0.137910505068E+04   -0.27125E-07   -0.78874E-10  3072   0.299E-05    0.853E-06
DAV:  16    -0.137910505070E+04   -0.16502E-07   -0.29081E-10  3008   0.226E-05    0.637E-06
DAV:  17    -0.137910505070E+04   -0.47730E-08    0.58900E-12  2880   0.150E-05
  29 F= -.13985062E+04 E0= -.13985062E+04  d E =0.239428E-03  mag=     0.0000
       N       E                     dE             d eps       ncg     rms          rms(c)
DAV:   1    -0.137910530268E+04   -0.25198E-03   -0.74120E-02  5056   0.206E-01    0.889E-02
DAV:   2    -0.137910529014E+04    0.12538E-04   -0.62857E-04  5024   0.186E-02    0.525E-02
DAV:   3    -0.137910528302E+04    0.71199E-05   -0.21460E-04  5440   0.107E-02    0.135E-02
DAV:   4    -0.137910527941E+04    0.36083E-05   -0.24022E-05  5232   0.349E-03    0.800E-03
DAV:   5    -0.137910527907E+04    0.33967E-06   -0.10424E-05  4864   0.221E-03    0.169E-03
DAV:   6    -0.137910527916E+04   -0.85958E-07   -0.69785E-07  4800   0.740E-04    0.844E-04
DAV:   7    -0.137910527922E+04   -0.65207E-07   -0.91371E-08  4512   0.285E-04    0.385E-04
DAV:   8    -0.137910527933E+04   -0.10544E-06   -0.22927E-08  3856   0.169E-04    0.185E-04
DAV:   9    -0.137910527944E+04   -0.10578E-06   -0.92336E-09  3520   0.131E-04    0.113E-04
DAV:  10    -0.137910527955E+04   -0.11179E-06   -0.71153E-09  3600   0.116E-04    0.591E-05
DAV:  11    -0.137910527962E+04   -0.73487E-07   -0.43385E-09  3232   0.836E-05    0.546E-05
DAV:  12    -0.137910527968E+04   -0.63883E-07   -0.31743E-09  3072   0.710E-05    0.297E-05
DAV:  13    -0.137910527972E+04   -0.36423E-07   -0.27251E-09  3072   0.600E-05    0.226E-05
DAV:  14    -0.137910527974E+04   -0.18728E-07   -0.15917E-09  3072   0.480E-05    0.160E-05
DAV:  15    -0.137910527975E+04   -0.14305E-07   -0.11199E-09  3072   0.366E-05    0.131E-05
DAV:  16    -0.137910527976E+04   -0.65920E-08   -0.38084E-10  2944   0.230E-05
  30 F= -.13985065E+04 E0= -.13985065E+04  d E =-.251687E-03  mag=    -0.0000
       N       E                     dE             d eps       ncg     rms          rms(c)
DAV:   1    -0.137910446703E+04    0.81272E-03   -0.76597E-02  4928   0.209E-01    0.102E-01
DAV:   2    -0.137910441198E+04    0.55054E-04   -0.75749E-04  5056   0.211E-02    0.599E-02
DAV:   3    -0.137910439963E+04    0.12352E-04   -0.39578E-04  5344   0.139E-02    0.190E-02
DAV:   4    -0.137910439190E+04    0.77299E-05   -0.38805E-05  4864   0.447E-03    0.119E-02
DAV:   5    -0.137910439082E+04    0.10826E-05   -0.17633E-05  4864   0.279E-03    0.197E-03
DAV:   6    -0.137910439087E+04   -0.55035E-07   -0.92047E-07  4608   0.779E-04    0.103E-03
DAV:   7    -0.137910439092E+04   -0.48429E-07   -0.16078E-07  4704   0.277E-04    0.658E-04
DAV:   8    -0.137910439101E+04   -0.88010E-07   -0.33328E-08  4000   0.167E-04    0.203E-04
DAV:   9    -0.137910439108E+04   -0.72483E-07   -0.12040E-08  3712   0.110E-04    0.145E-04
DAV:  10    -0.137910439116E+04   -0.82742E-07   -0.56275E-09  3232   0.918E-05    0.695E-05
DAV:  11    -0.137910439121E+04   -0.50743E-07   -0.40712E-09  2976   0.803E-05    0.480E-05
DAV:  12    -0.137910439126E+04   -0.47876E-07   -0.49251E-09  3200   0.893E-05    0.297E-05
DAV:  13    -0.137910439129E+04   -0.27387E-07   -0.32891E-09  2944   0.756E-05    0.284E-05
DAV:  14    -0.137910439131E+04   -0.20198E-07   -0.13379E-09  3040   0.404E-05    0.200E-05
DAV:  15    -0.137910439133E+04   -0.22948E-07   -0.11666E-09  3040   0.338E-05    0.158E-05
DAV:  16    -0.137910439134E+04   -0.61555E-08   -0.44179E-10  2880   0.243E-05
  31 F= -.13985053E+04 E0= -.13985053E+04  d E =0.118470E-02  mag=    -0.0000
       N       E                     dE             d eps       ncg     rms          rms(c)
DAV:   1    -0.137910520114E+04   -0.80981E-03   -0.79267E-02  4992   0.215E-01    0.114E-01
DAV:   2    -0.137910513052E+04    0.70623E-04   -0.12463E-03  5248   0.284E-02    0.693E-02
DAV:   3    -0.137910509916E+04    0.31355E-04   -0.74623E-04  5408   0.194E-02    0.261E-02
DAV:   4    -0.137910508536E+04    0.13800E-04   -0.89722E-05  4960   0.644E-03    0.171E-02
DAV:   5    -0.137910508288E+04    0.24835E-05   -0.25597E-05  5152   0.339E-03    0.436E-03
DAV:   6    -0.137910508260E+04    0.27556E-06   -0.32432E-06  4704   0.127E-03    0.125E-03
DAV:   7    -0.137910508266E+04   -0.58586E-07   -0.41667E-07  5024   0.467E-04    0.108E-03
DAV:   8    -0.137910508272E+04   -0.57611E-07   -0.47750E-08  4000   0.205E-04    0.375E-04
DAV:   9    -0.137910508280E+04   -0.78639E-07   -0.34705E-08  3936   0.155E-04    0.211E-04
DAV:  10    -0.137910508288E+04   -0.77998E-07   -0.65127E-09  3488   0.893E-05    0.889E-05
DAV:  11    -0.137910508294E+04   -0.66822E-07   -0.40684E-09  3152   0.702E-05    0.541E-05
DAV:  12    -0.137910508301E+04   -0.62151E-07   -0.43395E-09  3248   0.798E-05    0.370E-05
DAV:  13    -0.137910508305E+04   -0.43627E-07   -0.38874E-09  3072   0.825E-05    0.334E-05
DAV:  14    -0.137910508308E+04   -0.26368E-07   -0.27190E-09  2944   0.664E-05    0.253E-05
DAV:  15    -0.137910508310E+04   -0.25335E-07   -0.21588E-09  3072   0.465E-05    0.184E-05
DAV:  16    -0.137910508311E+04   -0.81782E-08   -0.90289E-10  2944   0.330E-05
  32 F= -.13985063E+04 E0= -.13985063E+04  d E =-.103180E-02  mag=    -0.0000
       N       E                     dE             d eps       ncg     rms          rms(c)
DAV:   1    -0.137910520717E+04   -0.12407E-03   -0.74435E-02  4992   0.182E-01    0.911E-02
DAV:   2    -0.137910518626E+04    0.20909E-04   -0.61318E-04  5248   0.176E-02    0.536E-02
DAV:   3    -0.137910517589E+04    0.10366E-04   -0.22535E-04  5632   0.984E-03    0.137E-02
DAV:   4    -0.137910517237E+04    0.35271E-05   -0.25059E-05  5088   0.331E-03    0.828E-03
DAV:   5    -0.137910517198E+04    0.38605E-06   -0.93590E-06  5184   0.205E-03    0.169E-03
DAV:   6    -0.137910517203E+04   -0.48924E-07   -0.63210E-07  4928   0.649E-04    0.890E-04
DAV:   7    -0.137910517210E+04   -0.72003E-07   -0.93787E-08  4192   0.235E-04    0.375E-04
DAV:   8    -0.137910517218E+04   -0.74826E-07   -0.19541E-08  3712   0.128E-04    0.205E-04
DAV:   9    -0.137910517225E+04   -0.73007E-07   -0.56227E-09  3328   0.951E-05    0.857E-05
DAV:  10    -0.137910517231E+04   -0.62108E-07   -0.46878E-09  3344   0.830E-05    0.673E-05
DAV:  11    -0.137910517236E+04   -0.47992E-07   -0.25992E-09  3072   0.734E-05    0.463E-05
DAV:  12    -0.137910517241E+04   -0.48502E-07   -0.39828E-09  3200   0.810E-05    0.250E-05
DAV:  13    -0.137910517243E+04   -0.16778E-07   -0.17736E-09  3072   0.569E-05    0.240E-05
DAV:  14    -0.137910517244E+04   -0.18888E-07   -0.99868E-10  3040   0.340E-05    0.125E-05
DAV:  15    -0.137910517246E+04   -0.15178E-07   -0.77314E-10  3040   0.290E-05    0.148E-05
DAV:  16    -0.137910517246E+04   -0.43510E-08   -0.13792E-10  2944   0.196E-05
  33 F= -.13985063E+04 E0= -.13985063E+04  d E =0.204626E-04  mag=     0.0000
       N       E                     dE             d eps       ncg     rms          rms(c)
DAV:   1    -0.137910458603E+04    0.58642E-03   -0.79773E-02  5056   0.190E-01    0.118E-01
DAV:   2    -0.137910445985E+04    0.12618E-03   -0.10241E-03  5312   0.229E-02    0.663E-02
DAV:   3    -0.137910443284E+04    0.27008E-04   -0.51370E-04  5536   0.144E-02    0.222E-02
DAV:   4    -0.137910442392E+04    0.89186E-05   -0.54143E-05  5312   0.470E-03    0.143E-02
DAV:   5    -0.137910442307E+04    0.85539E-06   -0.15090E-05  5760   0.259E-03    0.310E-03
DAV:   6    -0.137910442292E+04    0.15204E-06   -0.14995E-06  5056   0.958E-04    0.105E-03
DAV:   7    -0.137910442291E+04    0.98225E-08   -0.26470E-07  5280   0.376E-04    0.752E-04
DAV:   8    -0.137910442291E+04   -0.43656E-10   -0.25998E-08  3776   0.170E-04
  34 F= -.13985054E+04 E0= -.13985054E+04  d E =0.920231E-03  mag=    -0.0000
       N       E                     dE             d eps       ncg     rms          rms(c)
DAV:   1    -0.137910514800E+04   -0.72509E-03   -0.78659E-02  5056   0.205E-01    0.112E-01
DAV:   2    -0.137910508351E+04    0.64489E-04   -0.11810E-03  5568   0.259E-02    0.670E-02
DAV:   3    -0.137910505708E+04    0.26428E-04   -0.62121E-04  5632   0.168E-02    0.234E-02
DAV:   4    -0.137910504639E+04    0.10688E-04   -0.74258E-05  5248   0.559E-03    0.154E-02
DAV:   5    -0.137910504448E+04    0.19149E-05   -0.21502E-05  5088   0.302E-03    0.428E-03
DAV:   6    -0.137910504443E+04    0.44689E-07   -0.29152E-06  5152   0.125E-03    0.120E-03
DAV:   7    -0.137910504463E+04   -0.19743E-06   -0.42334E-07  5248   0.485E-04    0.904E-04
DAV:   8    -0.137910504488E+04   -0.24823E-06   -0.51580E-08  3936   0.200E-04    0.418E-04
DAV:   9    -0.137910504510E+04   -0.22564E-06   -0.30625E-08  4000   0.173E-04    0.177E-04
DAV:  10    -0.137910504527E+04   -0.16761E-06   -0.77963E-09  3584   0.993E-05    0.144E-04
DAV:  11    -0.137910504547E+04   -0.19725E-06   -0.75992E-09  3552   0.998E-05    0.769E-05
DAV:  12    -0.137910504562E+04   -0.14811E-06   -0.80053E-09  3680   0.122E-04    0.531E-05
DAV:  13    -0.137910504572E+04   -0.10573E-06   -0.80212E-09  3552   0.143E-04    0.380E-05
DAV:  14    -0.137910504577E+04   -0.47527E-07   -0.49480E-09  3200   0.123E-04    0.229E-05
DAV:  15    -0.137910504581E+04   -0.34852E-07   -0.26511E-09  3008   0.743E-05    0.197E-05
DAV:  16    -0.137910504583E+04   -0.20460E-07   -0.11391E-09  3008   0.384E-05    0.109E-05
DAV:  17    -0.137910504583E+04   -0.50932E-08   -0.45670E-10  3072   0.265E-05
  35 F= -.13985062E+04 E0= -.13985062E+04  d E =-.808016E-03  mag=     0.0000
       N       E                     dE             d eps       ncg     rms          rms(c)
DAV:   1    -0.137910515938E+04   -0.11355E-03   -0.75249E-02  4352   0.189E-01    0.926E-02
DAV:   2    -0.137910513990E+04    0.19475E-04   -0.69492E-04  4384   0.174E-02    0.547E-02
DAV:   3    -0.137910513083E+04    0.90718E-05   -0.24792E-04  5088   0.105E-02    0.139E-02
DAV:   4    -0.137910512692E+04    0.39033E-05   -0.26998E-05  4544   0.365E-03    0.857E-03
DAV:   5    -0.137910512655E+04    0.37682E-06   -0.10630E-05  4480   0.227E-03    0.171E-03
DAV:   6    -0.137910512688E+04   -0.33325E-06   -0.78869E-07  4544   0.687E-04    0.977E-04
DAV:   7    -0.137910512727E+04   -0.39255E-06   -0.12645E-07  4800   0.287E-04    0.532E-04
DAV:   8    -0.137910512773E+04   -0.46042E-06   -0.38602E-08  3872   0.146E-04    0.230E-04
DAV:   9    -0.137910512815E+04   -0.41293E-06   -0.20915E-08  3936   0.112E-04    0.150E-04
DAV:  10    -0.137910512843E+04   -0.28116E-06   -0.77961E-09  3520   0.779E-05    0.107E-04
DAV:  11    -0.137910512877E+04   -0.33855E-06   -0.14455E-08  3776   0.916E-05    0.590E-05
DAV:  12    -0.137910512894E+04   -0.17157E-06   -0.65950E-09  3424   0.854E-05    0.500E-05
DAV:  13    -0.137910512908E+04   -0.14489E-06   -0.51717E-09  3264   0.695E-05    0.303E-05
DAV:  14    -0.137910512916E+04   -0.78348E-07   -0.25875E-09  3072   0.527E-05    0.195E-05
DAV:  15    -0.137910512921E+04   -0.49680E-07   -0.19239E-09  3040   0.490E-05    0.147E-05
DAV:  16    -0.137910512923E+04   -0.23851E-07   -0.10368E-09  3040   0.399E-05    0.126E-05
DAV:  17    -0.137910512925E+04   -0.11249E-07   -0.32461E-10  3040   0.230E-05    0.716E-06
DAV:  18    -0.137910512925E+04   -0.86875E-08   -0.67401E-11  3008   0.168E-05
  36 F= -.13985063E+04 E0= -.13985063E+04  d E =-.138739E-03  mag=     0.0000
       N       E                     dE             d eps       ncg     rms          rms(c)
DAV:   1    -0.137910429538E+04    0.83386E-03   -0.76469E-02  4352   0.190E-01    0.995E-02
DAV:   2    -0.137910424442E+04    0.50966E-04   -0.76729E-04  4432   0.186E-02    0.580E-02
DAV:   3    -0.137910422721E+04    0.17206E-04   -0.34840E-04  4928   0.126E-02    0.175E-02
DAV:   4    -0.137910422111E+04    0.61059E-05   -0.36694E-05  4672   0.424E-03    0.109E-02
DAV:   5    -0.137910422048E+04    0.62987E-06   -0.13800E-05  4544   0.255E-03    0.204E-03
DAV:   6    -0.137910422083E+04   -0.35035E-06   -0.93224E-07  4832   0.773E-04    0.103E-03
DAV:   7    -0.137910422127E+04   -0.43941E-06   -0.15457E-07  4704   0.302E-04    0.687E-04
DAV:   8    -0.137910422190E+04   -0.63630E-06   -0.60169E-08  4064   0.203E-04    0.234E-04
DAV:   9    -0.137910422238E+04   -0.47617E-06   -0.26806E-08  3904   0.130E-04    0.192E-04
DAV:  10    -0.137910422286E+04   -0.48267E-06   -0.20120E-08  3936   0.999E-05    0.110E-04
DAV:  11    -0.137910422324E+04   -0.38218E-06   -0.18073E-08  3840   0.922E-05    0.794E-05
DAV:  12    -0.137910422344E+04   -0.19520E-06   -0.65535E-09  3392   0.748E-05    0.593E-05
DAV:  13    -0.137910422362E+04   -0.18055E-06   -0.84181E-09  3536   0.742E-05    0.346E-05
DAV:  14    -0.137910422369E+04   -0.69427E-07   -0.22542E-09  3072   0.552E-05    0.250E-05
DAV:  15    -0.137910422376E+04   -0.70431E-07   -0.26960E-09  3008   0.506E-05    0.147E-05
DAV:  16    -0.137910422379E+04   -0.32218E-07   -0.13469E-09  3072   0.440E-05    0.119E-05
DAV:  17    -0.137910422380E+04   -0.12849E-07   -0.50244E-10  3072   0.304E-05    0.755E-06
DAV:  18    -0.137910422382E+04   -0.15265E-07   -0.28273E-10  3008   0.241E-05    0.822E-06
DAV:  19    -0.137910422382E+04   -0.17171E-08    0.34031E-11  2944   0.127E-05
  37 F= -.13985055E+04 E0= -.13985055E+04  d E =0.879495E-03  mag=    -0.0000
       N       E                     dE             d eps       ncg     rms          rms(c)
DAV:   1    -0.137910496914E+04   -0.74532E-03   -0.80907E-02  4416   0.209E-01    0.120E-01
DAV:   2    -0.137910489901E+04    0.70136E-04   -0.15131E-03  4976   0.291E-02    0.709E-02
DAV:   3    -0.137910485806E+04    0.40940E-04   -0.67320E-04  5024   0.178E-02    0.245E-02
DAV:   4    -0.137910484880E+04    0.92640E-05   -0.65261E-05  4832   0.562E-03    0.159E-02
DAV:   5    -0.137910484629E+04    0.25125E-05   -0.23454E-05  5024   0.346E-03    0.347E-03
DAV:   6    -0.137910484646E+04   -0.17390E-06   -0.23173E-06  5280   0.119E-03    0.133E-03
DAV:   7    -0.137910484659E+04   -0.13236E-06   -0.28661E-07  4832   0.472E-04    0.814E-04
DAV:   8    -0.137910484687E+04   -0.27123E-06   -0.63230E-08  4128   0.255E-04    0.383E-04
DAV:   9    -0.137910484716E+04   -0.29059E-06   -0.28613E-08  3904   0.152E-04    0.217E-04
DAV:  10    -0.137910484752E+04   -0.36640E-06   -0.17153E-08  3808   0.121E-04    0.146E-04
DAV:  11    -0.137910484783E+04   -0.31132E-06   -0.13346E-08  3616   0.111E-04    0.931E-05
DAV:  12    -0.137910484811E+04   -0.27515E-06   -0.13625E-08  3744   0.119E-04    0.657E-05
DAV:  13    -0.137910484828E+04   -0.17504E-06   -0.92009E-09  3392   0.134E-04    0.479E-05
DAV:  14    -0.137910484838E+04   -0.99157E-07   -0.74040E-09  3360   0.132E-04    0.316E-05
DAV:  15    -0.137910484845E+04   -0.64669E-07   -0.47617E-09  3136   0.109E-04    0.218E-05
DAV:  16    -0.137910484848E+04   -0.32756E-07   -0.21214E-09  3072   0.666E-05    0.154E-05
DAV:  17    -0.137910484850E+04   -0.19150E-07   -0.85971E-10  3040   0.336E-05    0.130E-05
DAV:  18    -0.137910484851E+04   -0.58644E-08   -0.23086E-10  3072   0.221E-05
  38 F= -.13985060E+04 E0= -.13985060E+04  d E =-.582784E-03  mag=     0.0000
       N       E                     dE             d eps       ncg     rms          rms(c)
DAV:   1    -0.137910493651E+04   -0.88011E-04   -0.80608E-02  4480   0.189E-01    0.122E-01
DAV:   2    -0.137910480939E+04    0.12712E-03   -0.11034E-03  5120   0.243E-02    0.687E-02
DAV:   3    -0.137910477399E+04    0.35401E-04   -0.57166E-04  5008   0.148E-02    0.228E-02
DAV:   4    -0.137910476450E+04    0.94913E-05   -0.53855E-05  4800   0.477E-03    0.147E-02
DAV:   5    -0.137910476305E+04    0.14432E-05   -0.17468E-05  5504   0.288E-03    0.333E-03
DAV:   6    -0.137910476305E+04    0.36234E-08   -0.19295E-06  4896   0.105E-03    0.116E-03
DAV:   7    -0.137910476326E+04   -0.21356E-06   -0.34564E-07  5184   0.461E-04    0.868E-04
DAV:   8    -0.137910476348E+04   -0.21537E-06   -0.36269E-08  3904   0.199E-04    0.440E-04
DAV:   9    -0.137910476377E+04   -0.29129E-06   -0.33307E-08  3936   0.161E-04    0.184E-04
DAV:  10    -0.137910476399E+04   -0.22615E-06   -0.93035E-09  3520   0.103E-04    0.142E-04
DAV:  11    -0.137910476423E+04   -0.23739E-06   -0.90197E-09  3584   0.944E-05    0.691E-05
DAV:  12    -0.137910476444E+04   -0.20722E-06   -0.10460E-08  3616   0.107E-04    0.616E-05
DAV:  13    -0.137910476455E+04   -0.11401E-06   -0.57565E-09  3296   0.970E-05    0.391E-05
DAV:  14    -0.137910476464E+04   -0.83935E-07   -0.43854E-09  3200   0.780E-05    0.234E-05
DAV:  15    -0.137910476469E+04   -0.53959E-07   -0.26330E-09  3072   0.577E-05    0.184E-05
DAV:  16    -0.137910476472E+04   -0.29511E-07   -0.13558E-09  3072   0.392E-05    0.102E-05
DAV:  17    -0.137910476474E+04   -0.17491E-07   -0.60263E-10  3072   0.263E-05    0.795E-06
DAV:  18    -0.137910476475E+04   -0.96479E-08   -0.23491E-10  3072   0.187E-05
  39 F= -.13985060E+04 E0= -.13985060E+04  d E =0.582335E-04  mag=    -0.0000
       N       E                     dE             d eps       ncg     rms          rms(c)
DAV:   1    -0.137910471662E+04    0.48123E-04   -0.72080E-02  4480   0.182E-01    0.773E-02
DAV:   2    -0.137910473383E+04   -0.17218E-04   -0.44295E-04  5152   0.134E-02    0.467E-02
DAV:   3    -0.137910473497E+04   -0.11383E-05   -0.82282E-05  5440   0.666E-03    0.614E-03
DAV:   4    -0.137910473473E+04    0.24207E-06   -0.91502E-06  5088   0.211E-03    0.429E-03
DAV:   5    -0.137910473461E+04    0.12397E-06   -0.35873E-06  4928   0.136E-03    0.131E-03
DAV:   6    -0.137910473475E+04   -0.14201E-06   -0.41005E-07  4832   0.530E-04    0.688E-04
DAV:   7    -0.137910473495E+04   -0.20403E-06   -0.57907E-08  4064   0.202E-04    0.326E-04
DAV:   8    -0.137910473520E+04   -0.24468E-06   -0.20457E-08  3824   0.119E-04    0.194E-04
DAV:   9    -0.137910473549E+04   -0.29658E-06   -0.15413E-08  3776   0.119E-04    0.109E-04
DAV:  10    -0.137910473573E+04   -0.24037E-06   -0.11235E-08  3616   0.889E-05    0.789E-05
DAV:  11    -0.137910473587E+04   -0.13624E-06   -0.42141E-09  3136   0.624E-05    0.557E-05
DAV:  12    -0.137910473600E+04   -0.13052E-06   -0.63791E-09  3296   0.704E-05    0.308E-05
DAV:  13    -0.137910473606E+04   -0.59561E-07   -0.30024E-09  3072   0.606E-05    0.257E-05
DAV:  14    -0.137910473610E+04   -0.42317E-07   -0.21400E-09  3008   0.432E-05    0.165E-05
DAV:  15    -0.137910473612E+04   -0.16618E-07   -0.11225E-09  3072   0.346E-05    0.100E-05
DAV:  16    -0.137910473612E+04   -0.57771E-08   -0.39245E-10  3072   0.219E-05
  40 F= -.13985059E+04 E0= -.13985059E+04  d E =0.119479E-03  mag=     0.0000
       N       E                     dE             d eps       ncg     rms          rms(c)
DAV:   1    -0.137910457533E+04    0.16079E-03   -0.80048E-02  4928   0.181E-01    0.122E-01
DAV:   2    -0.137910443501E+04    0.14032E-03   -0.14285E-03  5280   0.248E-02    0.693E-02
DAV:   3    -0.137910440529E+04    0.29724E-04   -0.50501E-04  5696   0.133E-02    0.246E-02
DAV:   4    -0.137910439681E+04    0.84733E-05   -0.72492E-05  5632   0.546E-03    0.119E-02
DAV:   5    -0.137910439728E+04   -0.46827E-06   -0.76642E-06  5600   0.219E-03    0.311E-03
DAV:   6    -0.137910439732E+04   -0.42826E-07   -0.13202E-06  5056   0.858E-04    0.145E-03
DAV:   7    -0.137910439760E+04   -0.27991E-06   -0.27414E-07  5392   0.401E-04    0.498E-04
DAV:   8    -0.137910439783E+04   -0.22896E-06   -0.27970E-08  3648   0.145E-04    0.266E-04
DAV:   9    -0.137910439813E+04   -0.29603E-06   -0.19699E-08  3840   0.108E-04    0.159E-04
DAV:  10    -0.137910439845E+04   -0.32672E-06   -0.16873E-08  3680   0.102E-04    0.927E-05
DAV:  11    -0.137910439864E+04   -0.18161E-06   -0.64186E-09  3328   0.715E-05    0.644E-05
DAV:  12    -0.137910439883E+04   -0.19748E-06   -0.10323E-08  3616   0.942E-05    0.478E-05
DAV:  13    -0.137910439892E+04   -0.86467E-07   -0.42784E-09  3136   0.882E-05    0.380E-05
DAV:  14    -0.137910439899E+04   -0.66226E-07   -0.28160E-09  3072   0.599E-05    0.225E-05
DAV:  15    -0.137910439904E+04   -0.51805E-07   -0.20192E-09  3072   0.481E-05    0.188E-05
DAV:  16    -0.137910439906E+04   -0.21668E-07   -0.10027E-09  3072   0.357E-05    0.148E-05
DAV:  17    -0.137910439907E+04   -0.12151E-07   -0.38254E-10  3072   0.248E-05    0.914E-06
DAV:  18    -0.137910439908E+04   -0.85856E-08   -0.17746E-10  3008   0.178E-05
  41 F= -.13985057E+04 E0= -.13985057E+04  d E =0.167408E-03  mag=    -0.0000
       N       E                     dE             d eps       ncg     rms          rms(c)
DAV:   1    -0.137910525097E+04   -0.85190E-03   -0.80824E-02  4992   0.147E-01    0.133E-01
DAV:   2    -0.137910502952E+04    0.22146E-03   -0.14583E-03  5440   0.241E-02    0.712E-02
DAV:   3    -0.137910499680E+04    0.32713E-04   -0.37089E-04  5856   0.113E-02    0.254E-02
DAV:   4    -0.137910499245E+04    0.43540E-05   -0.52558E-05  5984   0.522E-03    0.103E-02
DAV:   5    -0.137910499308E+04   -0.62627E-06   -0.69458E-06  5728   0.204E-03    0.325E-03
DAV:   6    -0.137910499307E+04    0.26921E-08   -0.11363E-06  5120   0.861E-04    0.185E-03
DAV:   7    -0.137910499319E+04   -0.11572E-06   -0.35822E-07  5312   0.459E-04    0.614E-04
DAV:   8    -0.137910499335E+04   -0.16279E-06   -0.47697E-08  4032   0.169E-04    0.242E-04
DAV:   9    -0.137910499345E+04   -0.10314E-06   -0.80667E-09  3296   0.825E-05    0.152E-04
DAV:  10    -0.137910499361E+04   -0.15475E-06   -0.84295E-09  3552   0.683E-05    0.882E-05
DAV:  11    -0.137910499373E+04   -0.11786E-06   -0.40805E-09  3200   0.538E-05    0.521E-05
DAV:  12    -0.137910499380E+04   -0.77445E-07   -0.30474E-09  3136   0.516E-05    0.382E-05
DAV:  13    -0.137910499387E+04   -0.60871E-07   -0.27110E-09  3072   0.541E-05    0.286E-05
DAV:  14    -0.137910499391E+04   -0.41575E-07   -0.28053E-09  3104   0.493E-05    0.155E-05
DAV:  15    -0.137910499392E+04   -0.14872E-07   -0.93933E-10  3040   0.342E-05    0.133E-05
DAV:  16    -0.137910499393E+04   -0.80472E-08   -0.52110E-10  3008   0.269E-05
  42 F= -.13985062E+04 E0= -.13985062E+04  d E =-.484149E-03  mag=     0.0000
       N       E                     dE             d eps       ncg     rms          rms(c)
DAV:   1    -0.137910501107E+04   -0.17150E-04   -0.74943E-02  4992   0.141E-01    0.979E-02
DAV:   2    -0.137910494964E+04    0.61434E-04   -0.66388E-04  5440   0.156E-02    0.553E-02
DAV:   3    -0.137910494116E+04    0.84755E-05   -0.15725E-04  5664   0.727E-03    0.159E-02
DAV:   4    -0.137910493984E+04    0.13234E-05   -0.20780E-05  6016   0.325E-03    0.589E-03
DAV:   5    -0.137910494014E+04   -0.29930E-06   -0.27698E-06  5344   0.125E-03    0.198E-03
DAV:   6    -0.137910494028E+04   -0.13708E-06   -0.41550E-07  5120   0.528E-04    0.105E-03
DAV:   7    -0.137910494042E+04   -0.14798E-06   -0.11078E-07  4672   0.280E-04    0.361E-04
DAV:   8    -0.137910494058E+04   -0.15582E-06   -0.21143E-08  3744   0.133E-04    0.171E-04
DAV:   9    -0.137910494071E+04   -0.13116E-06   -0.63493E-09  3392   0.822E-05    0.104E-04
DAV:  10    -0.137910494086E+04   -0.14549E-06   -0.80241E-09  3456   0.101E-04    0.603E-05
DAV:  11    -0.137910494095E+04   -0.94777E-07   -0.65956E-09  3328   0.112E-04    0.446E-05
DAV:  12    -0.137910494101E+04   -0.58804E-07   -0.51347E-09  3264   0.106E-04    0.299E-05
DAV:  13    -0.137910494105E+04   -0.40338E-07   -0.34273E-09  3072   0.781E-05    0.224E-05
DAV:  14    -0.137910494108E+04   -0.26281E-07   -0.18591E-09  3072   0.496E-05    0.137E-05
DAV:  15    -0.137910494109E+04   -0.15454E-07   -0.11270E-09  3072   0.393E-05    0.109E-05
DAV:  16    -0.137910494109E+04   -0.27794E-08   -0.36288E-10  2944   0.230E-05
  43 F= -.13985061E+04 E0= -.13985061E+04  d E =0.128230E-03  mag=     0.0000
       N       E                     dE             d eps       ncg     rms          rms(c)
DAV:   1    -0.137910528645E+04   -0.34536E-03   -0.72055E-02  5056   0.169E-01    0.805E-02
DAV:   2    -0.137910532046E+04   -0.34014E-04   -0.96423E-04  5600   0.176E-02    0.497E-02
DAV:   3    -0.137910530192E+04    0.18549E-04   -0.14095E-04  5728   0.128E-02    0.135E-02
DAV:   4    -0.137910530089E+04    0.10283E-05   -0.18586E-05  5792   0.445E-03    0.662E-03
DAV:   5    -0.137910530054E+04    0.34345E-06   -0.47680E-06  5920   0.277E-03    0.286E-03
DAV:   6    -0.137910530050E+04    0.38635E-07   -0.70842E-07  6240   0.109E-03    0.112E-03
DAV:   7    -0.137910530067E+04   -0.16115E-06   -0.13399E-07  5600   0.451E-04    0.558E-04
DAV:   8    -0.137910530087E+04   -0.20339E-06   -0.33049E-08  4320   0.285E-04    0.292E-04
DAV:   9    -0.137910530115E+04   -0.27745E-06   -0.24395E-08  4000   0.229E-04    0.174E-04
DAV:  10    -0.137910530136E+04   -0.21640E-06   -0.13888E-08  3616   0.145E-04    0.114E-04
DAV:  11    -0.137910530158E+04   -0.21854E-06   -0.10178E-08  3392   0.104E-04    0.730E-05
DAV:  12    -0.137910530174E+04   -0.15381E-06   -0.73198E-09  3264   0.922E-05    0.487E-05
DAV:  13    -0.137910530183E+04   -0.97687E-07   -0.49177E-09  3072   0.846E-05    0.338E-05
DAV:  14    -0.137910530188E+04   -0.49928E-07   -0.34307E-09  3072   0.805E-05    0.300E-05
DAV:  15    -0.137910530192E+04   -0.33135E-07   -0.22878E-09  3072   0.681E-05    0.212E-05
DAV:  16    -0.137910530193E+04   -0.16909E-07   -0.11464E-09  3072   0.455E-05    0.191E-05
DAV:  17    -0.137910530194E+04   -0.11438E-07   -0.48994E-10  3072   0.288E-05    0.104E-05
DAV:  18    -0.137910530195E+04   -0.45984E-08   -0.22572E-10  3072   0.227E-05
  44 F= -.13985065E+04 E0= -.13985065E+04  d E =-.439118E-03  mag=     0.0000
       N       E                     dE             d eps       ncg     rms          rms(c)
DAV:   1    -0.137910548854E+04   -0.18660E-03   -0.69620E-02  5072   0.149E-01    0.690E-02
DAV:   2    -0.137910546080E+04    0.27747E-04   -0.73903E-04  5600   0.143E-02    0.401E-02
DAV:   3    -0.137910542497E+04    0.35822E-04   -0.90644E-05  6080   0.916E-03    0.109E-02
DAV:   4    -0.137910542260E+04    0.23787E-05   -0.11270E-05  5984   0.327E-03    0.379E-03
DAV:   5    -0.137910542261E+04   -0.15047E-07   -0.20992E-06  5696   0.152E-03    0.159E-03
DAV:   6    -0.137910542289E+04   -0.28237E-06   -0.37085E-07  6176   0.785E-04    0.990E-04
DAV:   7    -0.137910542326E+04   -0.37131E-06   -0.87552E-08  5024   0.383E-04    0.495E-04
DAV:   8    -0.137910542377E+04   -0.50376E-06   -0.44187E-08  4480   0.297E-04    0.280E-04
DAV:   9    -0.137910542425E+04   -0.47866E-06   -0.45561E-08  4768   0.259E-04    0.210E-04
DAV:  10    -0.137910542469E+04   -0.44063E-06   -0.21782E-08  3904   0.170E-04    0.119E-04
DAV:  11    -0.137910542499E+04   -0.29750E-06   -0.13112E-08  3648   0.115E-04    0.864E-05
DAV:  12    -0.137910542523E+04   -0.24043E-06   -0.10189E-08  3648   0.928E-05    0.542E-05
DAV:  13    -0.137910542538E+04   -0.15229E-06   -0.51242E-09  3200   0.752E-05    0.348E-05
DAV:  14    -0.137910542547E+04   -0.87690E-07   -0.33671E-09  3072   0.702E-05    0.285E-05
DAV:  15    -0.137910542553E+04   -0.64218E-07   -0.24393E-09  3072   0.509E-05    0.224E-05
DAV:  16    -0.137910542558E+04   -0.47643E-07   -0.17169E-09  3072   0.440E-05    0.119E-05
[...]
DAV:   5    -0.137910336530E+04    0.12059E-05   -0.16370E-05  4768   0.267E-03    0.419E-03
DAV:   6    -0.137910336586E+04   -0.55462E-06   -0.15089E-06  4864   0.846E-04    0.192E-03
DAV:   7    -0.137910336657E+04   -0.71140E-06   -0.31308E-07  4384   0.492E-04    0.536E-04
DAV:   8    -0.137910336711E+04   -0.54187E-06   -0.79781E-08  4640   0.241E-04    0.296E-04
DAV:   9    -0.137910336769E+04   -0.57819E-06   -0.21909E-08  3872   0.136E-04    0.165E-04
DAV:  10    -0.137910336822E+04   -0.52867E-06   -0.17741E-08  3808   0.123E-04    0.994E-05
DAV:  11    -0.137910336867E+04   -0.45827E-06   -0.18297E-08  3904   0.121E-04    0.649E-05
DAV:  12    -0.137910336890E+04   -0.22624E-06   -0.69468E-09  3520   0.974E-05    0.470E-05
DAV:  13    -0.137910336907E+04   -0.16671E-06   -0.56537E-09  3200   0.875E-05    0.269E-05
DAV:  14    -0.137910336914E+04   -0.69209E-07   -0.31232E-09  3040   0.728E-05    0.205E-05
DAV:  15    -0.137910336917E+04   -0.37820E-07   -0.17846E-09  3072   0.514E-05    0.126E-05
DAV:  16    -0.137910336920E+04   -0.26383E-07   -0.12176E-09  3008   0.408E-05    0.110E-05
DAV:  17    -0.137910336921E+04   -0.77271E-08   -0.43138E-10  3072   0.272E-05
  60 F= -.13985046E+04 E0= -.13985046E+04  d E =-.262940E-03  mag=     0.0000
       N       E                     dE             d eps       ncg     rms          rms(c)
DAV:   1    -0.137910311362E+04    0.25558E-03   -0.49297E-01  4800   0.548E-01    0.140E-01
DAV:   2    -0.137910318298E+04   -0.69359E-04   -0.37112E-03  5024   0.458E-02    0.873E-02
DAV:   3    -0.137910307808E+04    0.10490E-03   -0.62327E-04  5280   0.184E-02    0.221E-02
DAV:   4    -0.137910308821E+04   -0.10124E-04   -0.11856E-04  5760   0.524E-03    0.102E-02
DAV:   5    -0.137910308733E+04    0.87534E-06   -0.11785E-05  4992   0.242E-03    0.420E-03
DAV:   6    -0.137910308804E+04   -0.70781E-06   -0.14392E-06  4880   0.964E-04    0.159E-03
DAV:   7    -0.137910308874E+04   -0.70082E-06   -0.27897E-07  4736   0.484E-04    0.579E-04
DAV:   8    -0.137910308946E+04   -0.72003E-06   -0.73931E-08  4832   0.219E-04    0.339E-04
DAV:   9    -0.137910309014E+04   -0.67680E-06   -0.21544E-08  3984   0.133E-04    0.188E-04
DAV:  10    -0.137910309089E+04   -0.75223E-06   -0.26836E-08  4064   0.113E-04    0.115E-04
DAV:  11    -0.137910309145E+04   -0.55932E-06   -0.17958E-08  3872   0.982E-05    0.815E-05
DAV:  12    -0.137910309182E+04   -0.37380E-06   -0.10340E-08  3584   0.766E-05    0.550E-05
DAV:  13    -0.137910309208E+04   -0.25824E-06   -0.74870E-09  3392   0.703E-05    0.337E-05
DAV:  14    -0.137910309220E+04   -0.11793E-06   -0.33379E-09  3072   0.569E-05    0.275E-05
DAV:  15    -0.137910309226E+04   -0.57276E-07   -0.19713E-09  3072   0.449E-05    0.162E-05
DAV:  16    -0.137910309230E+04   -0.44180E-07   -0.17531E-09  3008   0.434E-05    0.132E-05
DAV:  17    -0.137910309231E+04   -0.73196E-08   -0.78940E-10  3072   0.345E-05
  61 F= -.13985040E+04 E0= -.13985040E+04  d E =0.520447E-03  mag=     0.0000
       N       E                     dE             d eps       ncg     rms          rms(c)
DAV:   1    -0.137910291777E+04    0.17453E-03   -0.49178E-01  4928   0.564E-01    0.135E-01
DAV:   2    -0.137910311587E+04   -0.19810E-03   -0.44994E-03  5024   0.505E-02    0.909E-02
DAV:   3    -0.137910298994E+04    0.12593E-03   -0.53697E-04  5120   0.178E-02    0.299E-02
DAV:   4    -0.137910299746E+04   -0.75177E-05   -0.15977E-04  5376   0.694E-03    0.108E-02
DAV:   5    -0.137910299596E+04    0.14964E-05   -0.18324E-05  4992   0.302E-03    0.508E-03
DAV:   6    -0.137910299749E+04   -0.15338E-05   -0.25172E-06  5216   0.115E-03    0.194E-03
DAV:   7    -0.137910299902E+04   -0.15301E-05   -0.52145E-07  4544   0.683E-04    0.750E-04
DAV:   8    -0.137910300053E+04   -0.15109E-05   -0.16817E-07  5088   0.347E-04    0.422E-04
DAV:   9    -0.137910300181E+04   -0.12745E-05   -0.49199E-08  4224   0.201E-04    0.235E-04
DAV:  10    -0.137910300311E+04   -0.12989E-05   -0.56451E-08  4416   0.185E-04    0.144E-04
DAV:  11    -0.137910300395E+04   -0.84468E-06   -0.30679E-08  4224   0.133E-04    0.104E-04
DAV:  12    -0.137910300470E+04   -0.74612E-06   -0.27837E-08  4192   0.111E-04    0.651E-05
DAV:  13    -0.137910300512E+04   -0.41712E-06   -0.13187E-08  3904   0.827E-05    0.438E-05
DAV:  14    -0.137910300530E+04   -0.18300E-06   -0.37399E-09  3136   0.720E-05    0.299E-05
DAV:  15    -0.137910300542E+04   -0.12653E-06   -0.40094E-09  3200   0.774E-05    0.259E-05
DAV:  16    -0.137910300548E+04   -0.51121E-07   -0.16164E-09  3072   0.527E-05    0.203E-05
DAV:  17    -0.137910300550E+04   -0.22264E-07   -0.61413E-10  3072   0.352E-05    0.107E-05
DAV:  18    -0.137910300551E+04   -0.16429E-07   -0.42342E-10  3040   0.322E-05    0.130E-05
DAV:  19    -0.137910300552E+04   -0.23574E-08   -0.20970E-11  3072   0.188E-05
  62 F= -.13985042E+04 E0= -.13985042E+04  d E =-.154541E-03  mag=    -0.0000
       N       E                     dE             d eps       ncg     rms          rms(c)
DAV:   1    -0.137910343053E+04   -0.42501E-03   -0.48475E-01  4928   0.483E-01    0.140E-01
DAV:   2    -0.137910350056E+04   -0.70034E-04   -0.37359E-03  5536   0.433E-02    0.864E-02
DAV:   3    -0.137910338896E+04    0.11160E-03   -0.59294E-04  5440   0.166E-02    0.236E-02
DAV:   4    -0.137910338991E+04   -0.94510E-06   -0.73939E-05  5824   0.561E-03    0.948E-03
DAV:   5    -0.137910338963E+04    0.27599E-06   -0.10147E-05  5536   0.208E-03    0.434E-03
DAV:   6    -0.137910338991E+04   -0.27764E-06   -0.16748E-06  5248   0.110E-03    0.172E-03
DAV:   7    -0.137910339040E+04   -0.49222E-06   -0.35511E-07  5184   0.546E-04    0.734E-04
DAV:   8    -0.137910339077E+04   -0.36613E-06   -0.70644E-08  4080   0.231E-04    0.374E-04
DAV:   9    -0.137910339117E+04   -0.39813E-06   -0.18528E-08  3744   0.145E-04    0.181E-04
DAV:  10    -0.137910339159E+04   -0.42550E-06   -0.14387E-08  3840   0.127E-04    0.112E-04
DAV:  11    -0.137910339202E+04   -0.42722E-06   -0.15690E-08  3808   0.117E-04    0.696E-05
DAV:  12    -0.137910339230E+04   -0.28145E-06   -0.93510E-09  3584   0.849E-05    0.474E-05
DAV:  13    -0.137910339246E+04   -0.15962E-06   -0.56427E-09  3296   0.747E-05    0.317E-05
DAV:  14    -0.137910339253E+04   -0.72294E-07   -0.33460E-09  3072   0.674E-05    0.207E-05
DAV:  15    -0.137910339258E+04   -0.46930E-07   -0.23743E-09  3072   0.526E-05    0.130E-05
DAV:  16    -0.137910339260E+04   -0.21173E-07   -0.11762E-09  3072   0.375E-05    0.990E-06
DAV:  17    -0.137910339261E+04   -0.74360E-08   -0.51827E-10  3072   0.277E-05
  63 F= -.13985047E+04 E0= -.13985047E+04  d E =-.502595E-03  mag=    -0.0000
       N       E                     dE             d eps       ncg     rms          rms(c)
DAV:   1    -0.137910311336E+04    0.27924E-03   -0.48341E-01  4928   0.510E-01    0.145E-01
DAV:   2    -0.137910313294E+04   -0.19583E-04   -0.38812E-03  5504   0.449E-02    0.848E-02
DAV:   3    -0.137910303700E+04    0.95936E-04   -0.66526E-04  5552   0.173E-02    0.262E-02
DAV:   4    -0.137910303731E+04   -0.30384E-06   -0.88394E-05  5952   0.589E-03    0.108E-02
DAV:   5    -0.137910303811E+04   -0.80597E-06   -0.92696E-06  6304   0.218E-03    0.463E-03
DAV:   6    -0.137910303818E+04   -0.64421E-07   -0.20023E-06  5280   0.127E-03    0.178E-03
DAV:   7    -0.137910303834E+04   -0.15703E-06   -0.42449E-07  5216   0.515E-04    0.653E-04
DAV:   8    -0.137910303847E+04   -0.13848E-06   -0.73191E-08  4480   0.228E-04    0.341E-04
DAV:   9    -0.137910303861E+04   -0.13139E-06   -0.15397E-08  3584   0.135E-04    0.162E-04
DAV:  10    -0.137910303875E+04   -0.14825E-06   -0.77728E-09  3552   0.934E-05    0.969E-05
DAV:  11    -0.137910303889E+04   -0.13867E-06   -0.57983E-09  3424   0.766E-05    0.542E-05
DAV:  12    -0.137910303901E+04   -0.11528E-06   -0.48300E-09  3232   0.655E-05    0.395E-05
DAV:  13    -0.137910303909E+04   -0.82800E-07   -0.40820E-09  3168   0.622E-05    0.279E-05
DAV:  14    -0.137910303915E+04   -0.58411E-07   -0.35891E-09  3136   0.579E-05    0.189E-05
DAV:  15    -0.137910303917E+04   -0.19063E-07   -0.15281E-09  3072   0.415E-05    0.142E-05
DAV:  16    -0.137910303919E+04   -0.25990E-07   -0.12026E-09  3072   0.340E-05    0.908E-06
DAV:  17    -0.137910303920E+04   -0.37980E-08   -0.38793E-10  2944   0.244E-05
  64 F= -.13985040E+04 E0= -.13985040E+04  d E =0.683674E-03  mag=    -0.0000
       N       E                     dE             d eps       ncg     rms          rms(c)
DAV:   1    -0.137910241767E+04    0.62152E-03   -0.49972E-01  4992   0.521E-01    0.151E-01
DAV:   2    -0.137910245329E+04   -0.35614E-04   -0.46150E-03  5312   0.489E-02    0.954E-02
DAV:   3    -0.137910231894E+04    0.13435E-03   -0.86561E-04  5536   0.205E-02    0.291E-02
DAV:   4    -0.137910232076E+04   -0.18154E-05   -0.14410E-04  5856   0.649E-03    0.133E-02
DAV:   5    -0.137910232141E+04   -0.65780E-06   -0.17893E-05  6048   0.280E-03    0.497E-03
DAV:   6    -0.137910232149E+04   -0.77751E-07   -0.25285E-06  4736   0.123E-03    0.245E-03
DAV:   7    -0.137910232203E+04   -0.53579E-06   -0.52314E-07  4992   0.572E-04    0.838E-04
DAV:   8    -0.137910232274E+04   -0.71152E-06   -0.16470E-07  5024   0.333E-04    0.423E-04
DAV:   9    -0.137910232341E+04   -0.67672E-06   -0.28378E-08  4032   0.195E-04    0.247E-04
DAV:  10    -0.137910232421E+04   -0.79689E-06   -0.31187E-08  4096   0.161E-04    0.136E-04
DAV:  11    -0.137910232488E+04   -0.67081E-06   -0.26855E-08  4064   0.136E-04    0.998E-05
DAV:  12    -0.137910232534E+04   -0.45259E-06   -0.14018E-08  3760   0.936E-05    0.679E-05
DAV:  13    -0.137910232570E+04   -0.36340E-06   -0.13551E-08  3840   0.902E-05    0.405E-05
DAV:  14    -0.137910232582E+04   -0.12503E-06   -0.27720E-09  3072   0.610E-05    0.310E-05
DAV:  15    -0.137910232592E+04   -0.94544E-07   -0.24160E-09  3072   0.485E-05    0.182E-05
DAV:  16    -0.137910232599E+04   -0.69398E-07   -0.18020E-09  3072   0.464E-05    0.179E-05
DAV:  17    -0.137910232602E+04   -0.27343E-07   -0.10442E-09  3072   0.359E-05    0.125E-05
DAV:  18    -0.137910232603E+04   -0.15862E-07   -0.55152E-10  3072   0.299E-05    0.735E-06
DAV:  19    -0.137910232604E+04   -0.58935E-08   -0.11676E-10  3072   0.183E-05
  65 F= -.13985036E+04 E0= -.13985036E+04  d E =0.393453E-03  mag=     0.0000
       N       E                     dE             d eps       ncg     rms          rms(c)
DAV:   1    -0.137910272457E+04   -0.39854E-03   -0.48781E-01  5056   0.463E-01    0.147E-01
DAV:   2    -0.137910270641E+04    0.18156E-04   -0.41745E-03  5504   0.418E-02    0.867E-02
DAV:   3    -0.137910260018E+04    0.10624E-03   -0.57786E-04  5504   0.158E-02    0.295E-02
DAV:   4    -0.137910260201E+04   -0.18330E-05   -0.96612E-05  5984   0.548E-03    0.107E-02
DAV:   5    -0.137910260247E+04   -0.46522E-06   -0.10114E-05  6208   0.234E-03    0.397E-03
DAV:   6    -0.137910260317E+04   -0.69397E-06   -0.11596E-06  5440   0.104E-03    0.193E-03
DAV:   7    -0.137910260410E+04   -0.93058E-06   -0.34283E-07  4928   0.508E-04    0.722E-04
DAV:   8    -0.137910260497E+04   -0.87084E-06   -0.11740E-07  4640   0.263E-04    0.354E-04
DAV:   9    -0.137910260560E+04   -0.63554E-06   -0.25271E-08  3968   0.145E-04    0.229E-04
DAV:  10    -0.137910260648E+04   -0.87544E-06   -0.34225E-08  4128   0.146E-04    0.144E-04
DAV:  11    -0.137910260726E+04   -0.78263E-06   -0.40291E-08  4224   0.157E-04    0.931E-05
DAV:  12    -0.137910260769E+04   -0.42270E-06   -0.16496E-08  3808   0.101E-04    0.684E-05
DAV:  13    -0.137910260793E+04   -0.24152E-06   -0.61750E-09  3296   0.741E-05    0.482E-05
DAV:  14    -0.137910260810E+04   -0.17218E-06   -0.57709E-09  3392   0.754E-05    0.316E-05
DAV:  15    -0.137910260819E+04   -0.89640E-07   -0.28232E-09  3072   0.693E-05    0.196E-05
DAV:  16    -0.137910260824E+04   -0.48356E-07   -0.16098E-09  3072   0.516E-05    0.143E-05
DAV:  17    -0.137910260828E+04   -0.43365E-07   -0.96470E-10  3072   0.377E-05    0.111E-05
DAV:  18    -0.137910260830E+04   -0.21988E-07   -0.48179E-10  3072   0.285E-05    0.673E-06
DAV:  19    -0.137910260831E+04   -0.82509E-08   -0.75715E-11  3072   0.192E-05
  66 F= -.13985040E+04 E0= -.13985040E+04  d E =-.400275E-03  mag=    -0.0000
       N       E                     dE             d eps       ncg     rms          rms(c)
DAV:   1    -0.137910479338E+04   -0.21851E-02   -0.49566E-01  4992   0.456E-01    0.156E-01
DAV:   2    -0.137910476585E+04    0.27523E-04   -0.44427E-03  5408   0.454E-02    0.868E-02
DAV:   3    -0.137910465134E+04    0.11451E-03   -0.83571E-04  5760   0.194E-02    0.292E-02
DAV:   4    -0.137910465240E+04   -0.10645E-05   -0.10959E-04  5696   0.611E-03    0.152E-02
DAV:   5    -0.137910465184E+04    0.56348E-06   -0.18101E-05  5984   0.323E-03    0.484E-03
DAV:   6    -0.137910465209E+04   -0.25147E-06   -0.30430E-06  5120   0.123E-03    0.201E-03
DAV:   7    -0.137910465261E+04   -0.52161E-06   -0.36845E-07  5360   0.465E-04    0.824E-04
DAV:   8    -0.137910465309E+04   -0.47986E-06   -0.96625E-08  4640   0.281E-04    0.364E-04
DAV:   9    -0.137910465351E+04   -0.41332E-06   -0.19129E-08  3680   0.128E-04    0.203E-04
DAV:  10    -0.137910465396E+04   -0.45412E-06   -0.15990E-08  3776   0.931E-05    0.127E-04
DAV:  11    -0.137910465446E+04   -0.49967E-06   -0.21238E-08  3840   0.102E-04    0.804E-05
DAV:  12    -0.137910465478E+04   -0.32086E-06   -0.12424E-08  3648   0.735E-05    0.589E-05
DAV:  13    -0.137910465499E+04   -0.20833E-06   -0.72418E-09  3424   0.620E-05    0.398E-05
DAV:  14    -0.137910465511E+04   -0.12033E-06   -0.40596E-09  3104   0.525E-05    0.260E-05
DAV:  15    -0.137910465517E+04   -0.64290E-07   -0.22293E-09  3072   0.424E-05    0.164E-05
DAV:  16    -0.137910465522E+04   -0.47250E-07   -0.14917E-09  3072   0.370E-05    0.131E-05
DAV:  17    -0.137910465525E+04   -0.28042E-07   -0.93012E-10  3072   0.342E-05    0.858E-06
DAV:  18    -0.137910465526E+04   -0.11423E-07   -0.46197E-10  3072   0.276E-05    0.644E-06
DAV:  19    -0.137910465527E+04   -0.51659E-08   -0.56773E-11  2944   0.147E-05
  67 F= -.13985059E+04 E0= -.13985059E+04  d E =-.191355E-02  mag=    -0.0000
       N       E                     dE             d eps       ncg     rms          rms(c)
DAV:   1    -0.137910272847E+04    0.19268E-02   -0.46594E-01  5056   0.475E-01    0.137E-01
DAV:   2    -0.137910281489E+04   -0.86428E-04   -0.43075E-03  5600   0.403E-02    0.829E-02
DAV:   3    -0.137910274268E+04    0.72212E-04   -0.48900E-04  5696   0.147E-02    0.298E-02
DAV:   4    -0.137910274090E+04    0.17805E-05   -0.85152E-05  5984   0.602E-03    0.123E-02
DAV:   5    -0.137910274233E+04   -0.14297E-05   -0.11233E-05  5568   0.250E-03    0.456E-03
DAV:   6    -0.137910274284E+04   -0.50876E-06   -0.16968E-06  5376   0.126E-03    0.235E-03
DAV:   7    -0.137910274365E+04   -0.81123E-06   -0.37914E-07  5424   0.661E-04    0.905E-04
DAV:   8    -0.137910274442E+04   -0.76862E-06   -0.12581E-07  4896   0.345E-04    0.423E-04
DAV:   9    -0.137910274532E+04   -0.90296E-06   -0.39953E-08  4256   0.208E-04    0.265E-04
DAV:  10    -0.137910274620E+04   -0.88301E-06   -0.32449E-08  4256   0.203E-04    0.169E-04
DAV:  11    -0.137910274718E+04   -0.97984E-06   -0.48895E-08  4224   0.223E-04    0.119E-04
DAV:  12    -0.137910274771E+04   -0.52157E-06   -0.22493E-08  3904   0.136E-04    0.830E-05
DAV:  13    -0.137910274793E+04   -0.22766E-06   -0.40311E-09  3264   0.644E-05    0.530E-05
DAV:  14    -0.137910274817E+04   -0.23107E-06   -0.77390E-09  3552   0.729E-05    0.354E-05
DAV:  15    -0.137910274824E+04   -0.75015E-07   -0.25886E-09  3072   0.780E-05    0.262E-05
DAV:  16    -0.137910274830E+04   -0.59808E-07   -0.25993E-09  3072   0.731E-05    0.155E-05
DAV:  17    -0.137910274832E+04   -0.18321E-07   -0.13218E-09  3072   0.538E-05    0.128E-05
DAV:  18    -0.137910274833E+04   -0.82073E-08   -0.52698E-10  3072   0.298E-05
  68 F= -.13985039E+04 E0= -.13985039E+04  d E =0.198734E-02  mag=     0.0000
       N       E                     dE             d eps       ncg     rms          rms(c)
DAV:   1    -0.137910305770E+04   -0.30938E-03   -0.48550E-01  5056   0.497E-01    0.146E-01
DAV:   2    -0.137910306516E+04   -0.74586E-05   -0.29623E-03  5408   0.370E-02    0.914E-02
DAV:   3    -0.137910297955E+04    0.85614E-04   -0.54255E-04  5504   0.154E-02    0.169E-02
DAV:   4    -0.137910298812E+04   -0.85701E-05   -0.10112E-04  5824   0.483E-03    0.833E-03
DAV:   5    -0.137910298824E+04   -0.12171E-06   -0.81140E-06  5344   0.190E-03    0.355E-03
DAV:   6    -0.137910298924E+04   -0.10029E-05   -0.11387E-06  5632   0.807E-04    0.152E-03
DAV:   7    -0.137910299035E+04   -0.11131E-05   -0.31662E-07  4608   0.480E-04    0.510E-04
DAV:   8    -0.137910299138E+04   -0.10293E-05   -0.12461E-07  4528   0.259E-04    0.384E-04
DAV:   9    -0.137910299229E+04   -0.90648E-06   -0.32571E-08  3936   0.152E-04    0.231E-04
DAV:  10    -0.137910299370E+04   -0.14096E-05   -0.80917E-08  4288   0.199E-04    0.151E-04
DAV:  11    -0.137910299429E+04   -0.59091E-06   -0.23917E-08  4080   0.141E-04    0.113E-04
DAV:  12    -0.137910299473E+04   -0.44335E-06   -0.12062E-08  3568   0.102E-04    0.762E-05
DAV:  13    -0.137910299510E+04   -0.36065E-06   -0.13325E-08  3888   0.101E-04    0.422E-05
DAV:  14    -0.137910299525E+04   -0.15378E-06   -0.46885E-09  3136   0.984E-05    0.311E-05
DAV:  15    -0.137910299535E+04   -0.10311E-06   -0.31363E-09  3072   0.691E-05    0.225E-05
DAV:  16    -0.137910299543E+04   -0.76878E-07   -0.23040E-09  3072   0.579E-05    0.138E-05
DAV:  17    -0.137910299546E+04   -0.33499E-07   -0.13490E-09  3072   0.470E-05    0.112E-05
DAV:  18    -0.137910299547E+04   -0.11059E-07   -0.46244E-10  3072   0.278E-05    0.827E-06
DAV:  19    -0.137910299548E+04   -0.68394E-08   -0.14555E-10  3072   0.184E-05
  69 F= -.13985043E+04 E0= -.13985043E+04  d E =-.324525E-03  mag=     0.0000
       N       E                     dE             d eps       ncg     rms          rms(c)
DAV:   1    -0.137910434808E+04   -0.13526E-02   -0.50304E-01  5056   0.471E-01    0.163E-01
DAV:   2    -0.137910432210E+04    0.25979E-04   -0.37965E-03  5504   0.401E-02    0.101E-01
DAV:   3    -0.137910418447E+04    0.13763E-03   -0.80818E-04  5376   0.180E-02    0.251E-02
DAV:   4    -0.137910419164E+04   -0.71721E-05   -0.13714E-04  5792   0.587E-03    0.119E-02
DAV:   5    -0.137910419081E+04    0.83029E-06   -0.20594E-05  5664   0.288E-03    0.513E-03
DAV:   6    -0.137910419180E+04   -0.98313E-06   -0.27089E-06  5280   0.121E-03    0.229E-03
DAV:   7    -0.137910419287E+04   -0.10712E-05   -0.67014E-07  4896   0.745E-04    0.678E-04
DAV:   8    -0.137910419403E+04   -0.11594E-05   -0.25096E-07  5344   0.372E-04    0.538E-04
DAV:   9    -0.137910419531E+04   -0.12836E-05   -0.53179E-08  4160   0.206E-04    0.270E-04
DAV:  10    -0.137910419676E+04   -0.14443E-05   -0.61690E-08  4256   0.229E-04    0.187E-04
DAV:  11    -0.137910419771E+04   -0.95372E-06   -0.36731E-08  3952   0.160E-04    0.140E-04
DAV:  12    -0.137910419836E+04   -0.64835E-06   -0.18275E-08  3744   0.107E-04    0.842E-05
DAV:  13    -0.137910419878E+04   -0.42559E-06   -0.10590E-08  3536   0.832E-05    0.524E-05
DAV:  14    -0.137910419905E+04   -0.26512E-06   -0.67700E-09  3392   0.758E-05    0.370E-05
DAV:  15    -0.137910419919E+04   -0.13832E-06   -0.37162E-09  3072   0.675E-05    0.262E-05
DAV:  16    -0.137910419928E+04   -0.91633E-07   -0.26041E-09  3072   0.525E-05    0.150E-05
DAV:  17    -0.137910419933E+04   -0.56345E-07   -0.18815E-09  3072   0.520E-05    0.127E-05
DAV:  18    -0.137910419935E+04   -0.13752E-07   -0.79239E-10  3072   0.355E-05    0.125E-05
DAV:  19    -0.137910419936E+04   -0.11321E-07   -0.27063E-10  3040   0.204E-05    0.584E-06
DAV:  20    -0.137910419937E+04   -0.78289E-08   -0.10009E-10  3040   0.155E-05
  70 F= -.13985054E+04 E0= -.13985054E+04  d E =-.109277E-02  mag=     0.0000
