       N       E                     dE             d eps       ncg     rms          rms(c)
DAV:   1    -0.127210326572E+04   -0.12721E+04   -0.12635E+00  6352   0.966E-01    0.959E-01
DAV:   2    -0.127384977479E+04   -0.17465E+01   -0.11281E+00  6272   0.936E-01    0.402E-01
DAV:   3    -0.127385969384E+04   -0.99190E-02   -0.38400E-02  6912   0.221E-01    0.277E-01
DAV:   4    -0.127385972521E+04   -0.31375E-04   -0.19997E-03  5696   0.556E-02    0.225E-01
DAV:   5    -0.127385973381E+04   -0.85934E-05   -0.18550E-04  7104   0.177E-02    0.190E-01
DAV:   6    -0.127385975053E+04   -0.16718E-04   -0.20984E-05  7104   0.701E-03    0.163E-01
DAV:   7    -0.127385976185E+04   -0.11329E-04   -0.22702E-05  6912   0.821E-03    0.129E-01
DAV:   8    -0.127385976940E+04   -0.75496E-05   -0.15559E-05  7040   0.620E-03    0.107E-01
DAV:   9    -0.127385977535E+04   -0.59422E-05   -0.42859E-06  7264   0.319E-03    0.918E-02
DAV:  10    -0.127385978343E+04   -0.80812E-05   -0.16506E-05  6560   0.714E-03    0.580E-02
DAV:  11    -0.127385978940E+04   -0.59691E-05   -0.32827E-05  6688   0.948E-03    0.182E-02
DAV:  12    -0.127385979078E+04   -0.13788E-05   -0.45610E-06  7072   0.273E-03    0.119E-02
DAV:  13    -0.127385979108E+04   -0.30719E-06   -0.79362E-07  6304   0.148E-03    0.600E-03
DAV:  14    -0.127385979113E+04   -0.47396E-07   -0.47375E-07  7360   0.953E-04    0.295E-03
DAV:  15    -0.127385979112E+04    0.13388E-07   -0.53752E-08  4672   0.391E-04    0.943E-04
DAV:  16    -0.127385979110E+04    0.13519E-07   -0.13877E-08  3264   0.224E-04    0.339E-04
DAV:  17    -0.127385979111E+04   -0.10346E-07   -0.12028E-08  3264   0.151E-04    0.341E-04
DAV:  18    -0.127385979111E+04    0.31869E-08   -0.44636E-09  3264   0.899E-05
   1 F= -.12924240E+04 E0= -.12924240E+04  d E =-.129242E+04  mag=     0.0000
       N       E                     dE             d eps       ncg     rms          rms(c)
DAV:   1    -0.127385853531E+04    0.12558E-02   -0.57881E-01  5248   0.873E-01    0.130E-01
DAV:   2    -0.127385884688E+04   -0.31157E-03   -0.50566E-03  5760   0.828E-02    0.936E-02
DAV:   3    -0.127385877090E+04    0.75975E-04   -0.51066E-04  6240   0.419E-02    0.382E-02
DAV:   4    -0.127385877534E+04   -0.44370E-05   -0.11782E-04  6208   0.164E-02    0.163E-02
DAV:   5    -0.127385877161E+04    0.37247E-05   -0.38548E-05  5856   0.101E-02    0.662E-03
DAV:   6    -0.127385877122E+04    0.39293E-06   -0.45207E-06  6080   0.330E-03    0.370E-03
DAV:   7    -0.127385877149E+04   -0.26992E-06   -0.30868E-06  6208   0.252E-03    0.236E-03
DAV:   8    -0.127385877159E+04   -0.99870E-07   -0.51070E-07  5776   0.113E-03    0.130E-03
DAV:   9    -0.127385877202E+04   -0.43299E-06   -0.33274E-07  5248   0.766E-04    0.728E-04
DAV:  10    -0.127385877242E+04   -0.39641E-06   -0.81514E-08  5344   0.506E-04    0.755E-04
DAV:  11    -0.127385877284E+04   -0.42195E-06   -0.85697E-08  5280   0.464E-04    0.269E-04
DAV:  12    -0.127385877327E+04   -0.42861E-06   -0.31133E-08  4432   0.243E-04    0.226E-04
DAV:  13    -0.127385877361E+04   -0.33803E-06   -0.11597E-08  3680   0.122E-04    0.209E-04
DAV:  14    -0.127385877393E+04   -0.32103E-06   -0.12620E-08  3872   0.102E-04    0.117E-04
DAV:  15    -0.127385877415E+04   -0.22157E-06   -0.83222E-09  3584   0.750E-05    0.549E-05
DAV:  16    -0.127385877428E+04   -0.13044E-06   -0.33510E-09  3264   0.515E-05    0.414E-05
DAV:  17    -0.127385877439E+04   -0.11173E-06   -0.45164E-09  3328   0.576E-05    0.367E-05
DAV:  18    -0.127385877443E+04   -0.40600E-07   -0.17875E-09  3264   0.397E-05    0.346E-05
DAV:  19    -0.127385877446E+04   -0.26674E-07   -0.11399E-09  3264   0.298E-05    0.190E-05
DAV:  20    -0.127385877448E+04   -0.18073E-07   -0.51744E-10  3264   0.269E-05    0.922E-06
DAV:  21    -0.127385877449E+04   -0.11045E-07   -0.29580E-10  3264   0.188E-05    0.133E-05
DAV:  22    -0.127385877450E+04   -0.64611E-08    0.23682E-11  3264   0.138E-05
   2 F= -.12924231E+04 E0= -.12924231E+04  d E =0.981398E-03  mag=     0.0000
       N       E                     dE             d eps       ncg     rms          rms(c)
DAV:   1    -0.127385862804E+04    0.14645E-03   -0.11573E+00  5216   0.123E+00    0.143E-01
DAV:   2    -0.127385937670E+04   -0.74866E-03   -0.10162E-02  5760   0.110E-01    0.940E-02
DAV:   3    -0.127385926837E+04    0.10833E-03   -0.71510E-04  6384   0.393E-02    0.475E-02
DAV:   4    -0.127385925481E+04    0.13562E-04   -0.19406E-04  5760   0.214E-02    0.167E-02
DAV:   5    -0.127385925201E+04    0.28055E-05   -0.51117E-05  5680   0.109E-02    0.874E-03
DAV:   6    -0.127385925206E+04   -0.49535E-07   -0.82584E-06  6144   0.326E-03    0.506E-03
DAV:   7    -0.127385925208E+04   -0.22774E-07   -0.28123E-06  6160   0.252E-03    0.277E-03
DAV:   8    -0.127385925257E+04   -0.48835E-06   -0.44049E-07  6464   0.958E-04    0.154E-03
DAV:   9    -0.127385925328E+04   -0.70910E-06   -0.22380E-07  5472   0.687E-04    0.600E-04
DAV:  10    -0.127385925408E+04   -0.80302E-06   -0.71307E-08  5072   0.348E-04    0.447E-04
DAV:  11    -0.127385925485E+04   -0.77186E-06   -0.45818E-08  4512   0.310E-04    0.250E-04
DAV:  12    -0.127385925553E+04   -0.67432E-06   -0.33913E-08  4096   0.204E-04    0.178E-04
DAV:  13    -0.127385925599E+04   -0.46274E-06   -0.16979E-08  3840   0.128E-04    0.108E-04
DAV:  14    -0.127385925640E+04   -0.40917E-06   -0.15442E-08  3840   0.909E-05    0.767E-05
DAV:  15    -0.127385925665E+04   -0.25796E-06   -0.79628E-09  3424   0.679E-05    0.480E-05
DAV:  16    -0.127385925680E+04   -0.14558E-06   -0.42614E-09  3200   0.585E-05    0.385E-05
DAV:  17    -0.127385925687E+04   -0.71785E-07   -0.25434E-09  3264   0.459E-05    0.318E-05
DAV:  18    -0.127385925693E+04   -0.56738E-07   -0.26322E-09  3200   0.446E-05    0.177E-05
DAV:  19    -0.127385925695E+04   -0.16633E-07   -0.10546E-09  3264   0.313E-05    0.165E-05
DAV:  20    -0.127385925696E+04   -0.15731E-07   -0.64894E-10  3200   0.237E-05    0.137E-05
DAV:  21    -0.127385925697E+04   -0.73051E-08   -0.18433E-10  3264   0.170E-05
   3 F= -.12924235E+04 E0= -.12924235E+04  d E =-.477947E-03  mag=     0.0000
       N       E                     dE             d eps       ncg     rms          rms(c)
DAV:   1    -0.127385915177E+04    0.10519E-03   -0.11494E+00  5152   0.122E+00    0.126E-01
DAV:   2    -0.127385962465E+04   -0.47288E-03   -0.88600E-03  5728   0.111E-01    0.889E-02
DAV:   3    -0.127385949769E+04    0.12695E-03   -0.86716E-04  6480   0.419E-02    0.457E-02
DAV:   4    -0.127385947889E+04    0.18806E-04   -0.17546E-04  5792   0.195E-02    0.166E-02
DAV:   5    -0.127385947795E+04    0.93898E-06   -0.43198E-05  5568   0.105E-02    0.886E-03
DAV:   6    -0.127385947845E+04   -0.49616E-06   -0.63254E-06  5712   0.330E-03    0.458E-03
DAV:   7    -0.127385948015E+04   -0.17073E-05   -0.26601E-06  6544   0.255E-03    0.260E-03
DAV:   8    -0.127385948181E+04   -0.16612E-05   -0.55003E-07  6560   0.112E-03    0.134E-03
DAV:   9    -0.127385948443E+04   -0.26121E-05   -0.26084E-07  5376   0.765E-04    0.690E-04
DAV:  10    -0.127385948688E+04   -0.24507E-05   -0.17351E-07  5728   0.565E-04    0.540E-04
DAV:  11    -0.127385948885E+04   -0.19741E-05   -0.11107E-07  4976   0.407E-04    0.271E-04
DAV:  12    -0.127385949085E+04   -0.20026E-05   -0.11297E-07  4656   0.299E-04    0.249E-04
DAV:  13    -0.127385949172E+04   -0.86246E-06   -0.32035E-08  4528   0.156E-04    0.171E-04
DAV:  14    -0.127385949248E+04   -0.76566E-06   -0.27407E-08  4320   0.122E-04    0.100E-04
DAV:  15    -0.127385949303E+04   -0.54626E-06   -0.19025E-08  4208   0.894E-05    0.720E-05
DAV:  16    -0.127385949328E+04   -0.25445E-06   -0.48204E-09  3408   0.637E-05    0.384E-05
DAV:  17    -0.127385949348E+04   -0.20200E-06   -0.71433E-09  3600   0.627E-05    0.416E-05
DAV:  18    -0.127385949356E+04   -0.78246E-07   -0.14709E-09  3264   0.413E-05    0.276E-05
DAV:  19    -0.127385949361E+04   -0.45562E-07   -0.10642E-09  3264   0.352E-05    0.241E-05
DAV:  20    -0.127385949363E+04   -0.25742E-07   -0.37184E-10  3264   0.246E-05    0.192E-05
DAV:  21    -0.127385949365E+04   -0.17346E-07   -0.18188E-10  3264   0.188E-05    0.109E-05
DAV:  22    -0.127385949366E+04   -0.64028E-08    0.50903E-11  3264   0.129E-05
   4 F= -.12924238E+04 E0= -.12924238E+04  d E =-.287514E-03  mag=     0.0000
       N       E                     dE             d eps       ncg     rms          rms(c)
DAV:   1    -0.127385841371E+04    0.10799E-02   -0.11493E+00  5120   0.123E+00    0.184E-01
DAV:   2    -0.127385925852E+04   -0.84482E-03   -0.12002E-02  5696   0.125E-01    0.152E-01
DAV:   3    -0.127385909406E+04    0.16447E-03   -0.95302E-04  6672   0.474E-02    0.898E-02
DAV:   4    -0.127385906047E+04    0.33591E-04   -0.46158E-04  6144   0.379E-02    0.235E-02
DAV:   5    -0.127385905308E+04    0.73821E-05   -0.12504E-04  6048   0.177E-02    0.146E-02
DAV:   6    -0.127385905343E+04   -0.34657E-06   -0.42028E-05  6112   0.834E-03    0.897E-03
DAV:   7    -0.127385905327E+04    0.16144E-06   -0.78707E-06  6848   0.463E-03    0.383E-03
DAV:   8    -0.127385905486E+04   -0.15938E-05   -0.31603E-06  5904   0.281E-03    0.314E-03
DAV:   9    -0.127385905626E+04   -0.13957E-05   -0.74867E-07  6784   0.138E-03    0.135E-03
DAV:  10    -0.127385905909E+04   -0.28310E-05   -0.48908E-07  5520   0.108E-03    0.100E-03
DAV:  11    -0.127385906170E+04   -0.26111E-05   -0.20948E-07  5632   0.679E-04    0.104E-03
DAV:  12    -0.127385906368E+04   -0.19829E-05   -0.15696E-07  4928   0.551E-04    0.393E-04
DAV:  13    -0.127385906522E+04   -0.15347E-05   -0.92048E-08  5120   0.329E-04    0.337E-04
DAV:  14    -0.127385906635E+04   -0.11283E-05   -0.30996E-08  4064   0.157E-04    0.224E-04
DAV:  15    -0.127385906756E+04   -0.12154E-05   -0.47492E-08  4128   0.161E-04    0.120E-04
DAV:  16    -0.127385906798E+04   -0.42279E-06   -0.83664E-09  3584   0.873E-05    0.653E-05
DAV:  17    -0.127385906833E+04   -0.34200E-06   -0.70189E-09  3424   0.764E-05    0.453E-05
DAV:  18    -0.127385906852E+04   -0.19686E-06   -0.33626E-09  3264   0.530E-05    0.439E-05
DAV:  19    -0.127385906863E+04   -0.10830E-06   -0.28325E-09  3264   0.437E-05    0.354E-05
DAV:  20    -0.127385906867E+04   -0.38068E-07   -0.12199E-09  3264   0.383E-05    0.178E-05
DAV:  21    -0.127385906869E+04   -0.22032E-07   -0.71176E-10  3264   0.318E-05    0.187E-05
DAV:  22    -0.127385906870E+04   -0.10376E-07   -0.22226E-10  3264   0.226E-05    0.239E-05
DAV:  23    -0.127385906871E+04   -0.33469E-08    0.49572E-11  3200   0.125E-05
   5 F= -.12924233E+04 E0= -.12924233E+04  d E =0.492476E-03  mag=     0.0000
       N       E                     dE             d eps       ncg     rms          rms(c)
DAV:   1    -0.127385858863E+04    0.48008E-03   -0.11475E+00  5120   0.110E+00    0.976E-02
DAV:   2    -0.127385918098E+04   -0.59236E-03   -0.83449E-03  5696   0.893E-02    0.635E-02
DAV:   3    -0.127385909468E+04    0.86304E-04   -0.67442E-04  6176   0.284E-02    0.308E-02
DAV:   4    -0.127385907452E+04    0.20161E-04   -0.12974E-04  5600   0.136E-02    0.121E-02
DAV:   5    -0.127385907499E+04   -0.47401E-06   -0.21587E-05  5632   0.631E-03    0.723E-03
DAV:   6    -0.127385907461E+04    0.38500E-06   -0.38790E-06  5664   0.234E-03    0.281E-03
DAV:   7    -0.127385907535E+04   -0.74343E-06   -0.98210E-07  7040   0.144E-03    0.139E-03
DAV:   8    -0.127385907612E+04   -0.76866E-06   -0.22171E-07  6304   0.608E-04    0.761E-04
DAV:   9    -0.127385907727E+04   -0.11454E-05   -0.71347E-08  4448   0.315E-04    0.434E-04
DAV:  10    -0.127385907854E+04   -0.12733E-05   -0.88281E-08  4640   0.325E-04    0.255E-04
DAV:  11    -0.127385907949E+04   -0.95252E-06   -0.46198E-08  4288   0.197E-04    0.172E-04
DAV:  12    -0.127385908019E+04   -0.70278E-06   -0.25712E-08  4048   0.118E-04    0.125E-04
DAV:  13    -0.127385908080E+04   -0.60645E-06   -0.26298E-08  4128   0.107E-04    0.808E-05
DAV:  14    -0.127385908109E+04   -0.29015E-06   -0.88131E-09  3680   0.682E-05    0.608E-05
DAV:  15    -0.127385908129E+04   -0.19615E-06   -0.41764E-09  3328   0.553E-05    0.381E-05
DAV:  16    -0.127385908142E+04   -0.13832E-06   -0.44992E-09  3360   0.507E-05    0.309E-05
DAV:  17    -0.127385908150E+04   -0.79250E-07   -0.24875E-09  3296   0.400E-05    0.226E-05
DAV:  18    -0.127385908154E+04   -0.36729E-07   -0.12016E-09  3264   0.300E-05    0.156E-05
DAV:  19    -0.127385908156E+04   -0.21100E-07   -0.55711E-10  3264   0.222E-05    0.861E-06
DAV:  20    -0.127385908158E+04   -0.20853E-07   -0.40433E-10  3200   0.209E-05    0.101E-05
DAV:  21    -0.127385908159E+04   -0.60390E-08   -0.30291E-11  3264   0.142E-05
   6 F= -.12924232E+04 E0= -.12924232E+04  d E =0.103423E-03  mag=    -0.0000
       N       E                     dE             d eps       ncg     rms          rms(c)
DAV:   1    -0.127385880295E+04    0.27863E-03   -0.11557E+00  5120   0.112E+00    0.185E-01
DAV:   2    -0.127385930463E+04   -0.50169E-03   -0.94033E-03  5792   0.113E-01    0.160E-01
DAV:   3    -0.127385916703E+04    0.13760E-03   -0.10190E-03  6224   0.502E-02    0.811E-02
DAV:   4    -0.127385914456E+04    0.22474E-04   -0.26992E-04  5792   0.282E-02    0.190E-02
DAV:   5    -0.127385914161E+04    0.29513E-05   -0.10925E-04  5584   0.186E-02    0.106E-02
DAV:   6    -0.127385914217E+04   -0.55716E-06   -0.16393E-05  5824   0.503E-03    0.526E-03
DAV:   7    -0.127385914344E+04   -0.12771E-05   -0.31984E-06  6784   0.308E-03    0.342E-03
DAV:   8    -0.127385914580E+04   -0.23591E-05   -0.79161E-07  6640   0.154E-03    0.160E-03
DAV:   9    -0.127385914871E+04   -0.29082E-05   -0.35503E-07  6848   0.106E-03    0.848E-04
DAV:  10    -0.127385915121E+04   -0.24974E-05   -0.14949E-07  5184   0.569E-04    0.499E-04
DAV:  11    -0.127385915442E+04   -0.32131E-05   -0.20808E-07  4928   0.563E-04    0.390E-04
DAV:  12    -0.127385915623E+04   -0.18125E-05   -0.11756E-07  5312   0.386E-04    0.218E-04
DAV:  13    -0.127385915796E+04   -0.17281E-05   -0.84530E-08  4352   0.240E-04    0.181E-04
DAV:  14    -0.127385915882E+04   -0.85645E-06   -0.32370E-08  4320   0.127E-04    0.139E-04
DAV:  15    -0.127385915933E+04   -0.50951E-06   -0.14061E-08  3872   0.114E-04    0.804E-05
DAV:  16    -0.127385915970E+04   -0.37038E-06   -0.10720E-08  3744   0.912E-05    0.726E-05
DAV:  17    -0.127385915991E+04   -0.21202E-06   -0.48484E-09  3360   0.649E-05    0.492E-05
DAV:  18    -0.127385916000E+04   -0.85827E-07   -0.22346E-09  3264   0.463E-05    0.232E-05
DAV:  19    -0.127385916008E+04   -0.85391E-07   -0.19109E-09  3264   0.395E-05    0.182E-05
DAV:  20    -0.127385916013E+04   -0.44078E-07   -0.10789E-09  3264   0.292E-05    0.171E-05
DAV:  21    -0.127385916014E+04   -0.18423E-07   -0.39797E-10  3264   0.237E-05    0.912E-06
DAV:  22    -0.127385916016E+04   -0.12195E-07   -0.15925E-10  3264   0.184E-05    0.913E-06
DAV:  23    -0.127385916016E+04   -0.20082E-08    0.64634E-11  3200   0.122E-05
   7 F= -.12924236E+04 E0= -.12924236E+04  d E =-.376871E-03  mag=     0.0000
       N       E                     dE             d eps       ncg     rms          rms(c)
DAV:   1    -0.127385835374E+04    0.80642E-03   -0.11489E+00  5120   0.114E+00    0.178E-01
DAV:   2    -0.127385922646E+04   -0.87272E-03   -0.11521E-02  5696   0.112E-01    0.147E-01
DAV:   3    -0.127385908636E+04    0.14010E-03   -0.92159E-04  6672   0.444E-02    0.827E-02
DAV:   4    -0.127385905420E+04    0.32159E-04   -0.38614E-04  5808   0.334E-02    0.219E-02
DAV:   5    -0.127385904824E+04    0.59606E-05   -0.14170E-04  5616   0.205E-02    0.110E-02
DAV:   6    -0.127385904929E+04   -0.10544E-05   -0.23887E-05  5808   0.570E-03    0.708E-03
DAV:   7    -0.127385904979E+04   -0.49596E-06   -0.55159E-06  6352   0.347E-03    0.421E-03
DAV:   8    -0.127385905125E+04   -0.14624E-05   -0.15803E-06  6384   0.219E-03    0.294E-03
DAV:   9    -0.127385905358E+04   -0.23355E-05   -0.85610E-07  6656   0.174E-03    0.986E-04
DAV:  10    -0.127385905623E+04   -0.26435E-05   -0.39381E-07  5504   0.890E-04    0.108E-03
DAV:  11    -0.127385905837E+04   -0.21392E-05   -0.14025E-07  5744   0.493E-04    0.612E-04
DAV:  12    -0.127385906151E+04   -0.31463E-05   -0.20799E-07  4704   0.581E-04    0.389E-04
DAV:  13    -0.127385906323E+04   -0.17119E-05   -0.83182E-08  4832   0.315E-04    0.265E-04
DAV:  14    -0.127385906442E+04   -0.11949E-05   -0.37298E-08  4032   0.184E-04    0.157E-04
DAV:  15    -0.127385906542E+04   -0.10024E-05   -0.22962E-08  3808   0.112E-04    0.103E-04
DAV:  16    -0.127385906614E+04   -0.72084E-06   -0.18585E-08  3776   0.104E-04    0.645E-05
DAV:  17    -0.127385906651E+04   -0.36576E-06   -0.59653E-09  3328   0.675E-05    0.560E-05
DAV:  18    -0.127385906669E+04   -0.18411E-06   -0.28598E-09  3200   0.471E-05    0.317E-05
DAV:  19    -0.127385906681E+04   -0.11209E-06   -0.23334E-09  3200   0.473E-05    0.241E-05
DAV:  20    -0.127385906685E+04   -0.43845E-07   -0.12548E-09  3264   0.335E-05    0.286E-05
DAV:  21    -0.127385906687E+04   -0.24360E-07   -0.56359E-10  3264   0.290E-05    0.195E-05
DAV:  22    -0.127385906688E+04   -0.86438E-08   -0.16089E-10  3264   0.247E-05
   8 F= -.12924233E+04 E0= -.12924233E+04  d E =0.283594E-03  mag=     0.0000
       N       E                     dE             d eps       ncg     rms          rms(c)
DAV:   1    -0.127385840964E+04    0.65724E-03   -0.11646E+00  5120   0.112E+00    0.320E-01
DAV:   2    -0.127385895322E+04   -0.54359E-03   -0.10311E-02  5952   0.121E-01    0.271E-01
DAV:   3    -0.127385880019E+04    0.15303E-03   -0.22784E-03  5920   0.988E-02    0.484E-02
DAV:   4    -0.127385878127E+04    0.18916E-04   -0.57480E-04  5600   0.395E-02    0.283E-02
DAV:   5    -0.127385877871E+04    0.25628E-05   -0.15634E-04  6240   0.163E-02    0.176E-02
DAV:   6    -0.127385877668E+04    0.20247E-05   -0.25518E-05  6720   0.790E-03    0.710E-03
DAV:   7    -0.127385877810E+04   -0.14183E-05   -0.40454E-06  6112   0.263E-03    0.346E-03
DAV:   8    -0.127385878019E+04   -0.20921E-05   -0.80316E-07  7456   0.153E-03    0.137E-03
DAV:   9    -0.127385878252E+04   -0.23280E-05   -0.23165E-07  5472   0.597E-04    0.876E-04
DAV:  10    -0.127385878608E+04   -0.35541E-05   -0.25071E-07  4800   0.629E-04    0.528E-04
DAV:  11    -0.127385878829E+04   -0.22102E-05   -0.14196E-07  5536   0.442E-04    0.374E-04
DAV:  12    -0.127385879011E+04   -0.18285E-05   -0.61364E-08  4352   0.234E-04    0.272E-04
DAV:  13    -0.127385879184E+04   -0.17232E-05   -0.59914E-08  4192   0.173E-04    0.185E-04
DAV:  14    -0.127385879293E+04   -0.10900E-05   -0.32444E-08  4000   0.131E-04    0.136E-04
DAV:  15    -0.127385879354E+04   -0.60959E-06   -0.14245E-08  3680   0.965E-05    0.772E-05
DAV:  16    -0.127385879392E+04   -0.38597E-06   -0.64748E-09  3328   0.698E-05    0.634E-05
DAV:  17    -0.127385879418E+04   -0.25732E-06   -0.63425E-09  3408   0.625E-05    0.425E-05
DAV:  18    -0.127385879431E+04   -0.13060E-06   -0.29629E-09  3296   0.554E-05    0.311E-05
DAV:  19    -0.127385879438E+04   -0.70693E-07   -0.16602E-09  3264   0.395E-05    0.340E-05
DAV:  20    -0.127385879441E+04   -0.28856E-07   -0.61863E-10  3264   0.292E-05    0.251E-05
DAV:  21    -0.127385879443E+04   -0.17171E-07   -0.30318E-10  3232   0.259E-05    0.972E-06
DAV:  22    -0.127385879444E+04   -0.11700E-07    0.90483E-13  3232   0.195E-05    0.134E-05
DAV:  23    -0.127385879444E+04   -0.51950E-08    0.19262E-10  3200   0.109E-05
   9 F= -.12924230E+04 E0= -.12924230E+04  d E =0.277748E-03  mag=     0.0000
       N       E                     dE             d eps       ncg     rms          rms(c)
DAV:   1    -0.127385846498E+04    0.32946E-03   -0.11397E+00  5120   0.112E+00    0.246E-01
DAV:   2    -0.127385934310E+04   -0.87812E-03   -0.11451E-02  5792   0.102E-01    0.182E-01
DAV:   3    -0.127385915322E+04    0.18989E-03   -0.12538E-03  5968   0.544E-02    0.693E-02
DAV:   4    -0.127385914445E+04    0.87659E-05   -0.27898E-04  6080   0.187E-02    0.291E-02
DAV:   5    -0.127385914183E+04    0.26170E-05   -0.83458E-05  6016   0.154E-02    0.123E-02
DAV:   6    -0.127385914501E+04   -0.31766E-05   -0.15920E-05  5920   0.554E-03    0.547E-03
DAV:   7    -0.127385915188E+04   -0.68693E-05   -0.52143E-06  6976   0.323E-03    0.271E-03
DAV:   8    -0.127385915656E+04   -0.46847E-05   -0.80537E-07  6432   0.132E-03    0.162E-03
DAV:   9    -0.127385916602E+04   -0.94558E-05   -0.11095E-06  5344   0.127E-03    0.150E-03
DAV:  10    -0.127385917317E+04   -0.71511E-05   -0.53964E-07  6432   0.797E-04    0.108E-03
DAV:  11    -0.127385918065E+04   -0.74768E-05   -0.84886E-07  5376   0.919E-04    0.678E-04
DAV:  12    -0.127385918527E+04   -0.46248E-05   -0.28582E-07  5056   0.477E-04    0.608E-04
DAV:  13    -0.127385918759E+04   -0.23150E-05   -0.11853E-07  5024   0.291E-04    0.258E-04
DAV:  14    -0.127385918940E+04   -0.18110E-05   -0.66223E-08  4576   0.183E-04    0.170E-04
DAV:  15    -0.127385919045E+04   -0.10531E-05   -0.27285E-08  4256   0.114E-04    0.111E-04
DAV:  16    -0.127385919142E+04   -0.96958E-06   -0.34172E-08  4512   0.131E-04    0.737E-05
DAV:  17    -0.127385919179E+04   -0.36399E-06   -0.69443E-09  3488   0.798E-05    0.655E-05
DAV:  18    -0.127385919195E+04   -0.16163E-06   -0.28528E-09  3264   0.570E-05    0.448E-05
DAV:  19    -0.127385919207E+04   -0.12154E-06   -0.22278E-09  3264   0.521E-05    0.356E-05
DAV:  20    -0.127385919212E+04   -0.46493E-07   -0.91326E-10  3264   0.327E-05    0.295E-05
DAV:  21    -0.127385919215E+04   -0.35681E-07   -0.46667E-10  3264   0.276E-05    0.178E-05
DAV:  22    -0.127385919218E+04   -0.23763E-07   -0.20981E-10  3264   0.221E-05    0.161E-05
DAV:  23    -0.127385919218E+04   -0.93423E-08    0.21510E-11  3264   0.140E-05
  10 F= -.12924235E+04 E0= -.12924235E+04  d E =-.492007E-03  mag=     0.0000
