       N       E                     dE             d eps       ncg     rms          rms(c)
DAV:   1    -0.132900462541E+04   -0.13290E+04   -0.13115E+00  6304   0.976E-01    0.954E-01
DAV:   2    -0.133075929604E+04   -0.17547E+01   -0.11698E+00  6144   0.948E-01    0.406E-01
DAV:   3    -0.133076919148E+04   -0.98954E-02   -0.41136E-02  6720   0.226E-01    0.276E-01
DAV:   4    -0.133076922728E+04   -0.35799E-04   -0.20908E-03  5664   0.567E-02    0.224E-01
DAV:   5    -0.133076923425E+04   -0.69723E-05   -0.20498E-04  6720   0.183E-02    0.188E-01
DAV:   6    -0.133076924700E+04   -0.12748E-04   -0.23827E-05  7200   0.722E-03    0.163E-01
DAV:   7    -0.133076925498E+04   -0.79827E-05   -0.22945E-05  6656   0.804E-03    0.130E-01
DAV:   8    -0.133076926092E+04   -0.59366E-05   -0.16840E-05  6976   0.644E-03    0.107E-01
DAV:   9    -0.133076926573E+04   -0.48153E-05   -0.52724E-06  7360   0.344E-03    0.908E-02
DAV:  10    -0.133076927101E+04   -0.52793E-05   -0.13070E-05  6592   0.615E-03    0.619E-02
DAV:  11    -0.133076927564E+04   -0.46238E-05   -0.38918E-05  6528   0.102E-02    0.189E-02
DAV:  12    -0.133076927692E+04   -0.12797E-05   -0.59598E-06  6976   0.312E-03    0.121E-02
DAV:  13    -0.133076927714E+04   -0.22046E-06   -0.69432E-07  7200   0.129E-03    0.661E-03
DAV:  14    -0.133076927713E+04    0.96043E-09   -0.46807E-07  6944   0.101E-03    0.315E-03
DAV:  15    -0.133076927707E+04    0.67172E-07   -0.79884E-08  5408   0.443E-04    0.118E-03
DAV:  16    -0.133076927705E+04    0.13999E-07   -0.11395E-08  3200   0.218E-04    0.471E-04
DAV:  17    -0.133076927705E+04    0.55297E-09   -0.14026E-08  3136   0.162E-04
   1 F= -.13497602E+04 E0= -.13497602E+04  d E =-.134976E+04  mag=     0.0000
       N       E                     dE             d eps       ncg     rms          rms(c)
DAV:   1    -0.133076829729E+04    0.97976E-03   -0.58169E-01  5120   0.862E-01    0.129E-01
DAV:   2    -0.133076864202E+04   -0.34473E-03   -0.53636E-03  5664   0.794E-02    0.867E-02
DAV:   3    -0.133076856982E+04    0.72201E-04   -0.57989E-04  6304   0.385E-02    0.362E-02
DAV:   4    -0.133076857548E+04   -0.56622E-05   -0.12581E-04  6144   0.158E-02    0.168E-02
DAV:   5    -0.133076857139E+04    0.40897E-05   -0.39688E-05  5824   0.937E-03    0.770E-03
DAV:   6    -0.133076857084E+04    0.55374E-06   -0.52436E-06  6016   0.304E-03    0.413E-03
DAV:   7    -0.133076857071E+04    0.13071E-06   -0.30324E-06  6400   0.260E-03    0.205E-03
DAV:   8    -0.133076857070E+04    0.76107E-08   -0.44524E-07  5760   0.109E-03    0.117E-03
DAV:   9    -0.133076857081E+04   -0.11177E-06   -0.19206E-07  5472   0.720E-04    0.567E-04
DAV:  10    -0.133076857095E+04   -0.13497E-06   -0.81522E-08  5280   0.547E-04    0.478E-04
DAV:  11    -0.133076857112E+04   -0.17110E-06   -0.51219E-08  4928   0.394E-04    0.257E-04
DAV:  12    -0.133076857127E+04   -0.14919E-06   -0.18770E-08  3904   0.242E-04    0.152E-04
DAV:  13    -0.133076857143E+04   -0.15895E-06   -0.94787E-09  3424   0.178E-04    0.141E-04
DAV:  14    -0.133076857156E+04   -0.13187E-06   -0.88871E-09  3408   0.121E-04    0.896E-05
DAV:  15    -0.133076857165E+04   -0.94442E-07   -0.52208E-09  3232   0.894E-05    0.441E-05
DAV:  16    -0.133076857172E+04   -0.71421E-07   -0.36044E-09  3248   0.589E-05    0.509E-05
DAV:  17    -0.133076857177E+04   -0.43248E-07   -0.12701E-09  3072   0.463E-05    0.298E-05
DAV:  18    -0.133076857180E+04   -0.30501E-07   -0.10231E-09  3072   0.443E-05    0.251E-05
DAV:  19    -0.133076857181E+04   -0.12165E-07    0.13635E-10  3072   0.288E-05    0.206E-05
DAV:  20    -0.133076857182E+04   -0.14028E-07    0.12428E-10  3072   0.305E-05    0.202E-05
DAV:  21    -0.133076857183E+04   -0.62428E-08    0.53189E-10  3008   0.204E-05
   2 F= -.13497595E+04 E0= -.13497595E+04  d E =0.707765E-03  mag=     0.0000
       N       E                     dE             d eps       ncg     rms          rms(c)
DAV:   1    -0.133076815601E+04    0.41581E-03   -0.11611E+00  5120   0.121E+00    0.141E-01
DAV:   2    -0.133076896259E+04   -0.80658E-03   -0.10667E-02  5600   0.107E-01    0.873E-02
DAV:   3    -0.133076886849E+04    0.94101E-04   -0.82185E-04  6400   0.359E-02    0.459E-02
DAV:   4    -0.133076885216E+04    0.16335E-04   -0.22162E-04  5600   0.214E-02    0.163E-02
DAV:   5    -0.133076885001E+04    0.21489E-05   -0.54935E-05  5536   0.103E-02    0.978E-03
DAV:   6    -0.133076885019E+04   -0.18084E-06   -0.10391E-05  6720   0.355E-03    0.547E-03
DAV:   7    -0.133076884992E+04    0.27307E-06   -0.24462E-06  6720   0.229E-03    0.304E-03
DAV:   8    -0.133076885006E+04   -0.14140E-06   -0.64856E-07  6336   0.122E-03    0.154E-03
DAV:   9    -0.133076885019E+04   -0.13424E-06   -0.25022E-07  5792   0.748E-04    0.645E-04
DAV:  10    -0.133076885039E+04   -0.20303E-06   -0.49037E-08  4736   0.342E-04    0.318E-04
DAV:  11    -0.133076885062E+04   -0.22519E-06   -0.22276E-08  4048   0.254E-04    0.225E-04
DAV:  12    -0.133076885082E+04   -0.20543E-06   -0.18912E-08  4016   0.211E-04    0.109E-04
DAV:  13    -0.133076885096E+04   -0.13884E-06   -0.68126E-09  3360   0.122E-04    0.905E-05
DAV:  14    -0.133076885108E+04   -0.11739E-06   -0.39306E-09  3168   0.811E-05    0.590E-05
DAV:  15    -0.133076885116E+04   -0.80618E-07   -0.38305E-09  3200   0.712E-05    0.351E-05
DAV:  16    -0.133076885121E+04   -0.50073E-07   -0.20438E-09  3104   0.513E-05    0.334E-05
DAV:  17    -0.133076885123E+04   -0.15498E-07   -0.59830E-10  3136   0.351E-05    0.267E-05
DAV:  18    -0.133076885124E+04   -0.17753E-07   -0.46694E-10  3072   0.371E-05    0.138E-05
DAV:  19    -0.133076885125E+04   -0.55588E-08    0.11209E-10  3072   0.269E-05
   3 F= -.13497598E+04 E0= -.13497598E+04  d E =-.374535E-03  mag=     0.0000
       N       E                     dE             d eps       ncg     rms          rms(c)
DAV:   1    -0.133076810531E+04    0.74593E-03   -0.11529E+00  5120   0.122E+00    0.133E-01
DAV:   2    -0.133076872051E+04   -0.61520E-03   -0.10291E-02  5728   0.114E-01    0.923E-02
DAV:   3    -0.133076858808E+04    0.13243E-03   -0.10391E-03  6400   0.453E-02    0.465E-02
DAV:   4    -0.133076857743E+04    0.10648E-04   -0.20131E-04  5696   0.207E-02    0.188E-02
DAV:   5    -0.133076857436E+04    0.30759E-05   -0.52409E-05  5568   0.117E-02    0.884E-03
DAV:   6    -0.133076857394E+04    0.41311E-06   -0.68233E-06  5728   0.361E-03    0.449E-03
DAV:   7    -0.133076857406E+04   -0.11352E-06   -0.33289E-06  6336   0.291E-03    0.275E-03
DAV:   8    -0.133076857422E+04   -0.16298E-06   -0.72820E-07  6464   0.127E-03    0.139E-03
DAV:   9    -0.133076857471E+04   -0.49458E-06   -0.26875E-07  5792   0.105E-03    0.692E-04
DAV:  10    -0.133076857530E+04   -0.58884E-06   -0.14524E-07  5664   0.707E-04    0.579E-04
DAV:  11    -0.133076857582E+04   -0.51693E-06   -0.77682E-08  5216   0.481E-04    0.286E-04
DAV:  12    -0.133076857644E+04   -0.61834E-06   -0.35219E-08  4384   0.397E-04    0.209E-04
DAV:  13    -0.133076857679E+04   -0.34877E-06   -0.28962E-08  4224   0.228E-04    0.165E-04
DAV:  14    -0.133076857704E+04   -0.25230E-06   -0.74585E-09  3328   0.110E-04    0.937E-05
DAV:  15    -0.133076857731E+04   -0.26733E-06   -0.12165E-08  3712   0.924E-05    0.623E-05
DAV:  16    -0.133076857741E+04   -0.97963E-07   -0.22330E-09  3168   0.620E-05    0.346E-05
DAV:  17    -0.133076857753E+04   -0.12186E-06   -0.50785E-09  3296   0.643E-05    0.512E-05
DAV:  18    -0.133076857756E+04   -0.34197E-07   -0.96829E-10  3136   0.544E-05    0.290E-05
DAV:  19    -0.133076857759E+04   -0.32363E-07   -0.13551E-09  3072   0.563E-05    0.406E-05
DAV:  20    -0.133076857761E+04   -0.11743E-07   -0.20066E-10  3136   0.438E-05    0.346E-05
DAV:  21    -0.133076857761E+04   -0.61264E-08    0.22392E-10  3072   0.302E-05
   4 F= -.13497594E+04 E0= -.13497594E+04  d E =0.398226E-03  mag=     0.0000
       N       E                     dE             d eps       ncg     rms          rms(c)
DAV:   1    -0.133076773036E+04    0.84724E-03   -0.11642E+00  5120   0.120E+00    0.173E-01
DAV:   2    -0.133076859177E+04   -0.86141E-03   -0.11876E-02  5632   0.113E-01    0.119E-01
DAV:   3    -0.133076841989E+04    0.17188E-03   -0.11011E-03  6336   0.446E-02    0.592E-02
DAV:   4    -0.133076840519E+04    0.14701E-04   -0.30171E-04  6112   0.249E-02    0.209E-02
DAV:   5    -0.133076840059E+04    0.45992E-05   -0.61837E-05  5888   0.113E-02    0.118E-02
DAV:   6    -0.133076839847E+04    0.21170E-05   -0.10059E-05  5760   0.430E-03    0.594E-03
DAV:   7    -0.133076839755E+04    0.92086E-06   -0.44074E-06  6848   0.343E-03    0.259E-03
DAV:   8    -0.133076839719E+04    0.35609E-06   -0.10404E-06  6144   0.187E-03    0.149E-03
DAV:   9    -0.133076839725E+04   -0.51194E-07   -0.55120E-07  6592   0.149E-03    0.987E-04
DAV:  10    -0.133076839777E+04   -0.52049E-06   -0.31834E-07  5856   0.141E-03    0.784E-04
DAV:  11    -0.133076839846E+04   -0.69445E-06   -0.35019E-07  5856   0.989E-04    0.413E-04
DAV:  12    -0.133076839904E+04   -0.58179E-06   -0.93411E-08  5072   0.372E-04    0.383E-04
DAV:  13    -0.133076839950E+04   -0.46202E-06   -0.22300E-08  4032   0.209E-04    0.213E-04
DAV:  14    -0.133076840013E+04   -0.62514E-06   -0.37340E-08  4320   0.181E-04    0.119E-04
DAV:  15    -0.133076840043E+04   -0.30526E-06   -0.84286E-09  3360   0.881E-05    0.722E-05
DAV:  16    -0.133076840072E+04   -0.28691E-06   -0.95645E-09  3488   0.750E-05    0.484E-05
DAV:  17    -0.133076840088E+04   -0.15656E-06   -0.39129E-09  3136   0.572E-05    0.350E-05
DAV:  18    -0.133076840098E+04   -0.99652E-07   -0.51124E-09  3264   0.582E-05    0.196E-05
DAV:  19    -0.133076840100E+04   -0.25480E-07   -0.12278E-09  3136   0.537E-05    0.211E-05
DAV:  20    -0.133076840102E+04   -0.16706E-07   -0.43836E-10  3072   0.335E-05    0.191E-05
DAV:  21    -0.133076840103E+04   -0.76543E-08    0.26992E-10  3072   0.246E-05
   5 F= -.13497593E+04 E0= -.13497593E+04  d E =0.178182E-03  mag=     0.0000
       N       E                     dE             d eps       ncg     rms          rms(c)
DAV:   1    -0.133076743592E+04    0.96510E-03   -0.11788E+00  5120   0.104E+00    0.110E-01
DAV:   2    -0.133076768854E+04   -0.25263E-03   -0.58093E-03  5504   0.764E-02    0.661E-02
DAV:   3    -0.133076759414E+04    0.94405E-04   -0.62411E-04  6048   0.267E-02    0.213E-02
DAV:   4    -0.133076759687E+04   -0.27328E-05   -0.93387E-05  6016   0.954E-03    0.137E-02
DAV:   5    -0.133076759588E+04    0.99523E-06   -0.70696E-06  5696   0.293E-03    0.693E-03
DAV:   6    -0.133076759543E+04    0.44378E-06   -0.16397E-06  6400   0.215E-03    0.220E-03
DAV:   7    -0.133076759548E+04   -0.49302E-07   -0.68744E-07  6688   0.103E-03    0.109E-03
DAV:   8    -0.133076759574E+04   -0.25994E-06   -0.10815E-07  5536   0.425E-04    0.708E-04
DAV:   9    -0.133076759608E+04   -0.33819E-06   -0.51933E-08  4512   0.375E-04    0.306E-04
DAV:  10    -0.133076759643E+04   -0.34834E-06   -0.57793E-08  4864   0.363E-04    0.228E-04
DAV:  11    -0.133076759674E+04   -0.31565E-06   -0.23900E-08  4064   0.194E-04    0.148E-04
DAV:  12    -0.133076759700E+04   -0.25473E-06   -0.10999E-08  3648   0.114E-04    0.853E-05
DAV:  13    -0.133076759719E+04   -0.19092E-06   -0.11322E-08  3712   0.984E-05    0.537E-05
DAV:  14    -0.133076759726E+04   -0.74200E-07   -0.19039E-09  3168   0.573E-05    0.415E-05
DAV:  15    -0.133076759734E+04   -0.79308E-07   -0.20977E-09  3136   0.526E-05    0.276E-05
DAV:  16    -0.133076759740E+04   -0.60332E-07   -0.21606E-09  3104   0.580E-05    0.242E-05
DAV:  17    -0.133076759742E+04   -0.17622E-07   -0.71824E-10  3072   0.484E-05    0.162E-05
DAV:  18    -0.133076759744E+04   -0.19616E-07   -0.28968E-10  3072   0.339E-05    0.145E-05
DAV:  19    -0.133076759745E+04   -0.64465E-08    0.30970E-10  2944   0.203E-05
   6 F= -.13497584E+04 E0= -.13497584E+04  d E =0.822824E-03  mag=     0.0000
       N       E                     dE             d eps       ncg     rms          rms(c)
DAV:   1    -0.133076748914E+04    0.10830E-03   -0.11812E+00  5120   0.106E+00    0.143E-01
DAV:   2    -0.133076787286E+04   -0.38373E-03   -0.72335E-03  5664   0.854E-02    0.915E-02
DAV:   3    -0.133076777237E+04    0.10049E-03   -0.91493E-04  6464   0.400E-02    0.301E-02
DAV:   4    -0.133076778171E+04   -0.93430E-05   -0.15106E-04  6080   0.138E-02    0.192E-02
DAV:   5    -0.133076777796E+04    0.37571E-05   -0.20847E-05  6192   0.634E-03    0.872E-03
DAV:   6    -0.133076777683E+04    0.11266E-05   -0.44667E-06  6784   0.352E-03    0.309E-03
DAV:   7    -0.133076777704E+04   -0.20767E-06   -0.11367E-06  6448   0.180E-03    0.140E-03
DAV:   8    -0.133076777751E+04   -0.47602E-06   -0.32194E-07  6448   0.105E-03    0.986E-04
DAV:   9    -0.133076777836E+04   -0.85149E-06   -0.14533E-07  5376   0.100E-03    0.515E-04
DAV:  10    -0.133076777920E+04   -0.83249E-06   -0.17476E-07  5504   0.858E-04    0.365E-04
DAV:  11    -0.133076778006E+04   -0.86593E-06   -0.15023E-07  5344   0.566E-04    0.354E-04
DAV:  12    -0.133076778057E+04   -0.50245E-06   -0.35194E-08  4528   0.286E-04    0.215E-04
DAV:  13    -0.133076778094E+04   -0.37806E-06   -0.14710E-08  3776   0.151E-04    0.124E-04
DAV:  14    -0.133076778128E+04   -0.34136E-06   -0.11889E-08  3584   0.106E-04    0.634E-05
DAV:  15    -0.133076778148E+04   -0.19507E-06   -0.52209E-09  3296   0.688E-05    0.593E-05
DAV:  16    -0.133076778163E+04   -0.14924E-06   -0.45532E-09  3264   0.638E-05    0.355E-05
DAV:  17    -0.133076778172E+04   -0.85798E-07   -0.30590E-09  3168   0.536E-05    0.313E-05
DAV:  18    -0.133076778175E+04   -0.36060E-07   -0.76925E-10  3072   0.367E-05    0.222E-05
DAV:  19    -0.133076778179E+04   -0.36511E-07   -0.51318E-10  3072   0.368E-05    0.136E-05
DAV:  20    -0.133076778179E+04   -0.73342E-08    0.20318E-10  3072   0.274E-05
   7 F= -.13497587E+04 E0= -.13497587E+04  d E =-.242675E-03  mag=     0.0000
       N       E                     dE             d eps       ncg     rms          rms(c)
DAV:   1    -0.133076799621E+04   -0.21442E-03   -0.11628E+00  5120   0.111E+00    0.193E-01
DAV:   2    -0.133076879519E+04   -0.79898E-03   -0.11901E-02  5792   0.105E-01    0.132E-01
DAV:   3    -0.133076860983E+04    0.18537E-03   -0.13543E-03  6112   0.503E-02    0.627E-02
DAV:   4    -0.133076860742E+04    0.24067E-05   -0.29319E-04  6496   0.215E-02    0.228E-02
DAV:   5    -0.133076860269E+04    0.47306E-05   -0.35562E-05  6048   0.928E-03    0.110E-02
DAV:   6    -0.133076860057E+04    0.21216E-05   -0.69213E-06  5920   0.408E-03    0.430E-03
DAV:   7    -0.133076860026E+04    0.30582E-06   -0.28766E-06  6880   0.271E-03    0.201E-03
DAV:   8    -0.133076860057E+04   -0.30348E-06   -0.55703E-07  6528   0.131E-03    0.127E-03
DAV:   9    -0.133076860119E+04   -0.61857E-06   -0.33126E-07  6400   0.138E-03    0.829E-04
DAV:  10    -0.133076860223E+04   -0.10451E-05   -0.33052E-07  5760   0.116E-03    0.519E-04
DAV:  11    -0.133076860337E+04   -0.11427E-05   -0.21782E-07  5696   0.818E-04    0.342E-04
DAV:  12    -0.133076860421E+04   -0.83185E-06   -0.83581E-08  4864   0.464E-04    0.233E-04
DAV:  13    -0.133076860487E+04   -0.66072E-06   -0.24171E-08  4240   0.181E-04    0.148E-04
DAV:  14    -0.133076860546E+04   -0.59583E-06   -0.18663E-08  3920   0.114E-04    0.858E-05
DAV:  15    -0.133076860578E+04   -0.31914E-06   -0.71805E-09  3264   0.721E-05    0.570E-05
DAV:  16    -0.133076860610E+04   -0.32385E-06   -0.13557E-08  3648   0.767E-05    0.358E-05
DAV:  17    -0.133076860620E+04   -0.99419E-07   -0.18365E-09  3136   0.541E-05    0.246E-05
DAV:  18    -0.133076860628E+04   -0.73327E-07   -0.22237E-09  3104   0.517E-05    0.190E-05
DAV:  19    -0.133076860630E+04   -0.21784E-07   -0.42612E-10  3104   0.424E-05    0.153E-05
DAV:  20    -0.133076860631E+04   -0.13228E-07   -0.56149E-11  3072   0.283E-05    0.958E-06
DAV:  21    -0.133076860632E+04   -0.36962E-08    0.47028E-10  3072   0.197E-05
   8 F= -.13497595E+04 E0= -.13497595E+04  d E =-.800019E-03  mag=    -0.0000
       N       E                     dE             d eps       ncg     rms          rms(c)
DAV:   1    -0.133076762828E+04    0.97803E-03   -0.11702E+00  5120   0.107E+00    0.306E-01
DAV:   2    -0.133076828239E+04   -0.65411E-03   -0.11208E-02  5632   0.107E-01    0.251E-01
DAV:   3    -0.133076811814E+04    0.16424E-03   -0.27758E-03  5792   0.844E-02    0.550E-02
DAV:   4    -0.133076809563E+04    0.22516E-04   -0.64951E-04  5696   0.319E-02    0.325E-02
DAV:   5    -0.133076808232E+04    0.13307E-04   -0.12267E-04  6368   0.159E-02    0.162E-02
DAV:   6    -0.133076808005E+04    0.22687E-05   -0.26995E-05  6240   0.699E-03    0.712E-03
DAV:   7    -0.133076807923E+04    0.82464E-06   -0.36387E-06  7008   0.278E-03    0.340E-03
DAV:   8    -0.133076808035E+04   -0.11186E-05   -0.12126E-06  6992   0.169E-03    0.180E-03
DAV:   9    -0.133076808183E+04   -0.14834E-05   -0.66134E-07  6368   0.149E-03    0.103E-03
DAV:  10    -0.133076808390E+04   -0.20690E-05   -0.31741E-07  5840   0.102E-03    0.673E-04
DAV:  11    -0.133076808619E+04   -0.22895E-05   -0.27591E-07  5344   0.851E-04    0.433E-04
DAV:  12    -0.133076808798E+04   -0.17960E-05   -0.13193E-07  5008   0.482E-04    0.356E-04
DAV:  13    -0.133076808907E+04   -0.10844E-05   -0.50690E-08  4832   0.232E-04    0.212E-04
DAV:  14    -0.133076808982E+04   -0.75015E-06   -0.20710E-08  3872   0.131E-04    0.154E-04
DAV:  15    -0.133076809025E+04   -0.43446E-06   -0.99972E-09  3424   0.947E-05    0.854E-05
DAV:  16    -0.133076809067E+04   -0.41386E-06   -0.15325E-08  3872   0.921E-05    0.105E-04
DAV:  17    -0.133076809086E+04   -0.19372E-06   -0.49646E-09  3296   0.731E-05    0.364E-05
DAV:  18    -0.133076809096E+04   -0.10394E-06   -0.26449E-09  3072   0.591E-05    0.422E-05
DAV:  19    -0.133076809102E+04   -0.51819E-07   -0.10418E-09  3072   0.462E-05    0.349E-05
DAV:  20    -0.133076809105E+04   -0.33469E-07   -0.43442E-10  3072   0.376E-05    0.177E-05
DAV:  21    -0.133076809106E+04   -0.11263E-07    0.21364E-10  3072   0.268E-05    0.113E-05
DAV:  22    -0.133076809107E+04   -0.75379E-08    0.48146E-10  3072   0.185E-05
   9 F= -.13497591E+04 E0= -.13497591E+04  d E =0.401436E-03  mag=     0.0000
       N       E                     dE             d eps       ncg     rms          rms(c)
DAV:   1    -0.133076777792E+04    0.31314E-03   -0.11501E+00  5120   0.106E+00    0.215E-01
DAV:   2    -0.133076879369E+04   -0.10158E-02   -0.12583E-02  5952   0.916E-02    0.159E-01
DAV:   3    -0.133076861294E+04    0.18075E-03   -0.13193E-03  6528   0.428E-02    0.807E-02
DAV:   4    -0.133076858817E+04    0.24765E-04   -0.32631E-04  5792   0.197E-02    0.299E-02
DAV:   5    -0.133076858139E+04    0.67792E-05   -0.13508E-04  5568   0.163E-02    0.120E-02
DAV:   6    -0.133076858370E+04   -0.23104E-05   -0.20977E-05  5760   0.552E-03    0.510E-03
DAV:   7    -0.133076858860E+04   -0.48939E-05   -0.44274E-06  6208   0.288E-03    0.260E-03
DAV:   8    -0.133076859239E+04   -0.37879E-05   -0.83464E-07  6016   0.111E-03    0.155E-03
DAV:   9    -0.133076859877E+04   -0.63841E-05   -0.82843E-07  4960   0.125E-03    0.122E-03
DAV:  10    -0.133076860435E+04   -0.55776E-05   -0.52289E-07  5504   0.710E-04    0.899E-04
DAV:  11    -0.133076860885E+04   -0.45048E-05   -0.53734E-07  5152   0.734E-04    0.581E-04
DAV:  12    -0.133076861198E+04   -0.31260E-05   -0.20848E-07  5088   0.430E-04    0.493E-04
DAV:  13    -0.133076861353E+04   -0.15480E-05   -0.83833E-08  4928   0.272E-04    0.227E-04
DAV:  14    -0.133076861500E+04   -0.14771E-05   -0.69567E-08  4640   0.186E-04    0.140E-04
DAV:  15    -0.133076861569E+04   -0.68528E-06   -0.19747E-08  3872   0.115E-04    0.812E-05
DAV:  16    -0.133076861626E+04   -0.57029E-06   -0.21939E-08  4128   0.921E-05    0.520E-05
DAV:  17    -0.133076861646E+04   -0.19836E-06   -0.33940E-09  3200   0.576E-05    0.377E-05
DAV:  18    -0.133076861658E+04   -0.12617E-06   -0.28607E-09  3200   0.514E-05    0.438E-05
DAV:  19    -0.133076861664E+04   -0.56854E-07   -0.66935E-10  3136   0.395E-05    0.326E-05
DAV:  20    -0.133076861668E+04   -0.39261E-07   -0.30853E-10  3072   0.408E-05    0.157E-05
DAV:  21    -0.133076861670E+04   -0.24695E-07   -0.35362E-11  3072   0.354E-05    0.276E-05
DAV:  22    -0.133076861671E+04   -0.40891E-08    0.46974E-10  2944   0.191E-05
  10 F= -.13497593E+04 E0= -.13497593E+04  d E =-.241725E-03  mag=    -0.0000
       N       E                     dE             d eps       ncg     rms          rms(c)
DAV:   1    -0.133076750256E+04    0.11141E-02   -0.62012E-01  5120   0.799E-01    0.160E-01
DAV:   2    -0.133076789692E+04   -0.39435E-03   -0.78398E-03  5952   0.827E-02    0.108E-01
DAV:   3    -0.133076774597E+04    0.15095E-03   -0.12262E-03  6144   0.454E-02    0.551E-02
DAV:   4    -0.133076773733E+04    0.86359E-05   -0.19403E-04  6048   0.167E-02    0.251E-02
DAV:   5    -0.133076772892E+04    0.84186E-05   -0.54768E-05  5728   0.116E-02    0.872E-03
DAV:   6    -0.133076772787E+04    0.10506E-05   -0.76624E-06  5824   0.408E-03    0.357E-03
DAV:   7    -0.133076772857E+04   -0.70315E-06   -0.21142E-06  6640   0.215E-03    0.222E-03
DAV:   8    -0.133076772935E+04   -0.77955E-06   -0.49285E-07  6272   0.120E-03    0.131E-03
DAV:   9    -0.133076773138E+04   -0.20294E-05   -0.36334E-07  5280   0.145E-03    0.809E-04
DAV:  10    -0.133076773290E+04   -0.15226E-05   -0.31489E-07  5776   0.877E-04    0.658E-04
DAV:  11    -0.133076773497E+04   -0.20739E-05   -0.19512E-07  5232   0.711E-04    0.343E-04
DAV:  12    -0.133076773660E+04   -0.16218E-05   -0.13015E-07  5168   0.561E-04    0.337E-04
DAV:  13    -0.133076773746E+04   -0.86353E-06   -0.47576E-08  4608   0.257E-04    0.209E-04
DAV:  14    -0.133076773801E+04   -0.55574E-06   -0.11356E-08  3744   0.116E-04    0.118E-04
DAV:  15    -0.133076773871E+04   -0.69482E-06   -0.20471E-08  4000   0.101E-04    0.900E-05
DAV:  16    -0.133076773906E+04   -0.34836E-06   -0.62971E-09  3296   0.701E-05    0.480E-05
DAV:  17    -0.133076773931E+04   -0.24744E-06   -0.68706E-09  3328   0.655E-05    0.375E-05
DAV:  18    -0.133076773941E+04   -0.10538E-06   -0.22827E-09  3072   0.691E-05    0.237E-05
DAV:  19    -0.133076773947E+04   -0.55064E-07   -0.18837E-09  3072   0.582E-05    0.198E-05
DAV:  20    -0.133076773948E+04   -0.14101E-07   -0.34898E-10  3104   0.384E-05    0.163E-05
DAV:  21    -0.133076773949E+04   -0.14275E-07    0.15035E-10  3072   0.281E-05    0.878E-06
DAV:  22    -0.133076773950E+04   -0.36089E-08    0.48652E-10  3072   0.208E-05
  11 F= -.13497586E+04 E0= -.13497586E+04  d E =0.705145E-03  mag=     0.0000
       N       E                     dE             d eps       ncg     rms          rms(c)
DAV:   1    -0.133076913630E+04   -0.13968E-02   -0.78626E-02  5120   0.163E-01    0.110E-01
DAV:   2    -0.133076903908E+04    0.97219E-04   -0.93345E-04  4640   0.183E-02    0.638E-02
DAV:   3    -0.133076901878E+04    0.20301E-04   -0.55560E-04  5184   0.145E-02    0.228E-02
DAV:   4    -0.133076900794E+04    0.10842E-04   -0.58822E-05  4640   0.477E-03    0.148E-02
DAV:   5    -0.133076900619E+04    0.17464E-05   -0.21785E-05  5088   0.300E-03    0.327E-03
DAV:   6    -0.133076900630E+04   -0.10621E-06   -0.22046E-06  4864   0.998E-04    0.111E-03
DAV:   7    -0.133076900654E+04   -0.24549E-06   -0.32473E-07  5120   0.372E-04    0.970E-04
DAV:   8    -0.133076900690E+04   -0.36019E-06   -0.64125E-08  4064   0.244E-04    0.340E-04
DAV:   9    -0.133076900726E+04   -0.35549E-06   -0.52656E-08  4288   0.208E-04    0.307E-04
DAV:  10    -0.133076900759E+04   -0.33218E-06   -0.15094E-08  3552   0.116E-04    0.131E-04
DAV:  11    -0.133076900788E+04   -0.28993E-06   -0.13293E-08  3552   0.983E-05    0.916E-05
DAV:  12    -0.133076900810E+04   -0.22407E-06   -0.92269E-09  3328   0.849E-05    0.671E-05
DAV:  13    -0.133076900820E+04   -0.10007E-06   -0.33686E-09  3200   0.658E-05    0.400E-05
DAV:  14    -0.133076900830E+04   -0.95577E-07   -0.41351E-09  3232   0.672E-05    0.333E-05
DAV:  15    -0.133076900834E+04   -0.39101E-07   -0.17872E-09  3104   0.547E-05    0.304E-05
DAV:  16    -0.133076900836E+04   -0.20518E-07   -0.46583E-10  3072   0.337E-05    0.143E-05
DAV:  17    -0.133076900838E+04   -0.19558E-07   -0.25618E-10  3072   0.322E-05    0.139E-05
DAV:  18    -0.133076900838E+04   -0.42201E-08    0.33306E-10  2944   0.210E-05
  12 F= -.13497599E+04 E0= -.13497599E+04  d E =-.124052E-02  mag=     0.0000
       N       E                     dE             d eps       ncg     rms          rms(c)
DAV:   1    -0.133076926757E+04   -0.25920E-03   -0.72642E-02  5024   0.160E-01    0.768E-02
DAV:   2    -0.133076929314E+04   -0.25570E-04   -0.51825E-04  4736   0.122E-02    0.466E-02
DAV:   3    -0.133076929455E+04   -0.14035E-05   -0.64849E-05  4768   0.510E-03    0.493E-03
DAV:   4    -0.133076929477E+04   -0.22592E-06   -0.70909E-06  4896   0.142E-03    0.284E-03
DAV:   5    -0.133076929476E+04    0.18510E-07   -0.14905E-06  4864   0.886E-04    0.101E-03
DAV:   6    -0.133076929496E+04   -0.20616E-06   -0.22988E-07  4704   0.389E-04    0.510E-04
DAV:   7    -0.133076929521E+04   -0.25176E-06   -0.47786E-08  3808   0.181E-04    0.232E-04
DAV:   8    -0.133076929545E+04   -0.23548E-06   -0.15030E-08  3616   0.977E-05    0.166E-04
DAV:   9    -0.133076929579E+04   -0.34051E-06   -0.14013E-08  3648   0.103E-04    0.870E-05
DAV:  10    -0.133076929603E+04   -0.23640E-06   -0.88486E-09  3456   0.872E-05    0.585E-05
DAV:  11    -0.133076929619E+04   -0.16375E-06   -0.57635E-09  3360   0.877E-05    0.427E-05
DAV:  12    -0.133076929629E+04   -0.98808E-07   -0.40545E-09  3232   0.908E-05    0.276E-05
DAV:  13    -0.133076929636E+04   -0.68976E-07   -0.35128E-09  3328   0.728E-05    0.189E-05
DAV:  14    -0.133076929639E+04   -0.28507E-07   -0.75465E-10  3072   0.428E-05    0.152E-05
DAV:  15    -0.133076929640E+04   -0.16531E-07   -0.10598E-10  3072   0.303E-05    0.963E-06
DAV:  16    -0.133076929641E+04   -0.78726E-08    0.32828E-10  3072   0.217E-05
  13 F= -.13497600E+04 E0= -.13497600E+04  d E =-.163146E-03  mag=    -0.0000
       N       E                     dE             d eps       ncg     rms          rms(c)
DAV:   1    -0.133076885304E+04    0.44336E-03   -0.72936E-02  4928   0.184E-01    0.792E-02
DAV:   2    -0.133076888385E+04   -0.30801E-04   -0.67769E-04  5120   0.155E-02    0.490E-02
DAV:   3    -0.133076888490E+04   -0.10508E-05   -0.12613E-04  5472   0.780E-03    0.920E-03
DAV:   4    -0.133076888365E+04    0.12472E-05   -0.14397E-05  5312   0.254E-03    0.561E-03
DAV:   5    -0.133076888337E+04    0.27637E-06   -0.66913E-06  4896   0.187E-03    0.156E-03
DAV:   6    -0.133076888362E+04   -0.24328E-06   -0.60404E-07  5040   0.633E-04    0.888E-04
DAV:   7    -0.133076888389E+04   -0.27801E-06   -0.88020E-08  4336   0.274E-04    0.418E-04
DAV:   8    -0.133076888422E+04   -0.32513E-06   -0.39664E-08  4048   0.200E-04    0.207E-04
DAV:   9    -0.133076888459E+04   -0.37142E-06   -0.20719E-08  3872   0.139E-04    0.126E-04
DAV:  10    -0.133076888483E+04   -0.24440E-06   -0.83494E-09  3456   0.895E-05    0.770E-05
DAV:  11    -0.133076888504E+04   -0.20096E-06   -0.73396E-09  3392   0.738E-05    0.511E-05
DAV:  12    -0.133076888516E+04   -0.12160E-06   -0.32605E-09  3200   0.523E-05    0.392E-05
DAV:  13    -0.133076888528E+04   -0.12288E-06   -0.40429E-09  3296   0.477E-05    0.246E-05
DAV:  14    -0.133076888533E+04   -0.52518E-07   -0.75276E-10  3104   0.350E-05    0.169E-05
DAV:  15    -0.133076888538E+04   -0.45795E-07   -0.49769E-10  3072   0.308E-05    0.119E-05
DAV:  16    -0.133076888540E+04   -0.23414E-07    0.12386E-10  3072   0.253E-05    0.124E-05
DAV:  17    -0.133076888541E+04   -0.90804E-08    0.50443E-10  3072   0.180E-05
  14 F= -.13497598E+04 E0= -.13497598E+04  d E =0.235432E-03  mag=    -0.0000
       N       E                     dE             d eps       ncg     rms          rms(c)
DAV:   1    -0.133076874271E+04    0.14269E-03   -0.76586E-02  4464   0.183E-01    0.101E-01
DAV:   2    -0.133076869216E+04    0.50555E-04   -0.84342E-04  5056   0.192E-02    0.598E-02
DAV:   3    -0.133076867737E+04    0.14787E-04   -0.44834E-04  5376   0.135E-02    0.199E-02
DAV:   4    -0.133076866868E+04    0.86913E-05   -0.43469E-05  5344   0.455E-03    0.127E-02
DAV:   5    -0.133076866713E+04    0.15460E-05   -0.23765E-05  4800   0.331E-03    0.245E-03
DAV:   6    -0.133076866753E+04   -0.39549E-06   -0.17871E-06  5120   0.114E-03    0.133E-03
DAV:   7    -0.133076866799E+04   -0.45933E-06   -0.30667E-07  5728   0.438E-04    0.106E-03
DAV:   8    -0.133076866868E+04   -0.69354E-06   -0.71103E-08  4128   0.231E-04    0.393E-04
DAV:   9    -0.133076866936E+04   -0.68177E-06   -0.53955E-08  4032   0.178E-04    0.298E-04
DAV:  10    -0.133076867007E+04   -0.70735E-06   -0.31845E-08  3840   0.163E-04    0.171E-04
DAV:  11    -0.133076867067E+04   -0.59771E-06   -0.32509E-08  3776   0.157E-04    0.103E-04
DAV:  12    -0.133076867111E+04   -0.44245E-06   -0.23772E-08  3680   0.133E-04    0.117E-04
DAV:  13    -0.133076867128E+04   -0.17135E-06   -0.51756E-09  3168   0.893E-05    0.726E-05
DAV:  14    -0.133076867152E+04   -0.23851E-06   -0.11484E-08  3552   0.899E-05    0.565E-05
DAV:  15    -0.133076867158E+04   -0.64916E-07   -0.17286E-09  3072   0.585E-05    0.533E-05
DAV:  16    -0.133076867166E+04   -0.74302E-07   -0.13875E-09  3072   0.502E-05    0.197E-05
DAV:  17    -0.133076867169E+04   -0.33775E-07   -0.55217E-10  3072   0.448E-05    0.325E-05
DAV:  18    -0.133076867170E+04   -0.11874E-07    0.30586E-10  3072   0.257E-05    0.234E-05
DAV:  19    -0.133076867172E+04   -0.12689E-07    0.34597E-10  3072   0.238E-05    0.121E-05
DAV:  20    -0.133076867172E+04   -0.63883E-08    0.57271E-10  3040   0.153E-05
  15 F= -.13497596E+04 E0= -.13497596E+04  d E =0.210748E-03  mag=     0.0000
       N       E                     dE             d eps       ncg     rms          rms(c)
DAV:   1    -0.133076825992E+04    0.41180E-03   -0.72579E-02  4416   0.180E-01    0.797E-02
DAV:   2    -0.133076827324E+04   -0.13324E-04   -0.57214E-04  4672   0.141E-02    0.481E-02
DAV:   3    -0.133076827338E+04   -0.13615E-06   -0.13656E-04  5056   0.732E-03    0.973E-03
DAV:   4    -0.133076827152E+04    0.18528E-05   -0.14637E-05  4832   0.244E-03    0.603E-03
DAV:   5    -0.133076827130E+04    0.22337E-06   -0.79153E-06  4768   0.175E-03    0.148E-03
DAV:   6    -0.133076827147E+04   -0.17080E-06   -0.62631E-07  4544   0.564E-04    0.810E-04
DAV:   7    -0.133076827183E+04   -0.36164E-06   -0.96222E-08  4032   0.241E-04    0.334E-04
DAV:   8    -0.133076827223E+04   -0.39347E-06   -0.36717E-08  3776   0.119E-04    0.211E-04
DAV:   9    -0.133076827260E+04   -0.37791E-06   -0.12561E-08  3488   0.799E-05    0.135E-04
DAV:  10    -0.133076827307E+04   -0.46354E-06   -0.23989E-08  3808   0.852E-05    0.914E-05
DAV:  11    -0.133076827330E+04   -0.23752E-06   -0.73779E-09  3296   0.620E-05    0.677E-05
DAV:  12    -0.133076827355E+04   -0.24939E-06   -0.95914E-09  3488   0.585E-05    0.450E-05
DAV:  13    -0.133076827369E+04   -0.13763E-06   -0.41262E-09  3104   0.599E-05    0.246E-05
DAV:  14    -0.133076827377E+04   -0.82742E-07   -0.32883E-09  3104   0.540E-05    0.321E-05
DAV:  15    -0.133076827379E+04   -0.18248E-07   -0.37276E-10  3104   0.384E-05    0.216E-05
DAV:  16    -0.133076827382E+04   -0.30414E-07   -0.63933E-10  3072   0.408E-05    0.316E-05
DAV:  17    -0.133076827383E+04   -0.68540E-08    0.25319E-10  3072   0.306E-05
  16 F= -.13497591E+04 E0= -.13497591E+04  d E =0.456154E-03  mag=    -0.0000
       N       E                     dE             d eps       ncg     rms          rms(c)
DAV:   1    -0.133076897854E+04   -0.70472E-03   -0.77600E-02  4928   0.195E-01    0.105E-01
DAV:   2    -0.133076895269E+04    0.25851E-04   -0.11908E-03  5056   0.233E-02    0.635E-02
DAV:   3    -0.133076892819E+04    0.24502E-04   -0.55734E-04  5216   0.151E-02    0.226E-02
DAV:   4    -0.133076891788E+04    0.10304E-04   -0.55377E-05  4736   0.484E-03    0.138E-02
DAV:   5    -0.133076891540E+04    0.24856E-05   -0.28534E-05  4864   0.342E-03    0.217E-03
DAV:   6    -0.133076891558E+04   -0.17921E-06   -0.14087E-06  4928   0.912E-04    0.127E-03
DAV:   7    -0.133076891572E+04   -0.13788E-06   -0.26302E-07  5024   0.380E-04    0.769E-04
DAV:   8    -0.133076891595E+04   -0.23331E-06   -0.45646E-08  3936   0.222E-04    0.347E-04
DAV:   9    -0.133076891627E+04   -0.31688E-06   -0.29972E-08  3872   0.160E-04    0.192E-04
DAV:  10    -0.133076891664E+04   -0.37056E-06   -0.16979E-08  3616   0.101E-04    0.135E-04
DAV:  11    -0.133076891699E+04   -0.35881E-06   -0.19399E-08  3776   0.953E-05    0.821E-05
DAV:  12    -0.133076891723E+04   -0.23113E-06   -0.10795E-08  3360   0.105E-04    0.604E-05
DAV:  13    -0.133076891739E+04   -0.16481E-06   -0.95262E-09  3296   0.950E-05    0.579E-05
DAV:  14    -0.133076891746E+04   -0.72381E-07   -0.28562E-09  3104   0.669E-05    0.344E-05
DAV:  15    -0.133076891752E+04   -0.60434E-07   -0.32725E-09  3072   0.674E-05    0.332E-05
DAV:  16    -0.133076891753E+04   -0.10084E-07   -0.46678E-10  2944   0.495E-05    0.286E-05
DAV:  17    -0.133076891754E+04   -0.92259E-08    0.18427E-10  3072   0.292E-05
  17 F= -.13497598E+04 E0= -.13497598E+04  d E =-.687750E-03  mag=     0.0000
       N       E                     dE             d eps       ncg     rms          rms(c)
DAV:   1    -0.133076880118E+04    0.11635E-03   -0.76867E-02  4992   0.187E-01    0.105E-01
DAV:   2    -0.133076873276E+04    0.68417E-04   -0.84622E-04  5184   0.205E-02    0.601E-02
DAV:   3    -0.133076871285E+04    0.19913E-04   -0.41325E-04  5472   0.131E-02    0.193E-02
DAV:   4    -0.133076870539E+04    0.74551E-05   -0.42343E-05  5376   0.433E-03    0.115E-02
DAV:   5    -0.133076870442E+04    0.97163E-06   -0.18127E-05  4928   0.289E-03    0.206E-03
DAV:   6    -0.133076870446E+04   -0.39960E-07   -0.10894E-06  5120   0.908E-04    0.111E-03
DAV:   7    -0.133076870457E+04   -0.10458E-06   -0.16802E-07  4864   0.306E-04    0.642E-04
DAV:   8    -0.133076870468E+04   -0.11384E-06   -0.22548E-08  3808   0.212E-04    0.271E-04
DAV:   9    -0.133076870479E+04   -0.11102E-06   -0.15758E-08  3808   0.161E-04    0.137E-04
DAV:  10    -0.133076870491E+04   -0.11950E-06   -0.74967E-09  3424   0.128E-04    0.926E-05
DAV:  11    -0.133076870500E+04   -0.92376E-07   -0.48042E-09  3264   0.108E-04    0.709E-05
DAV:  12    -0.133076870509E+04   -0.90484E-07   -0.71090E-09  3328   0.128E-04    0.401E-05
DAV:  13    -0.133076870513E+04   -0.38286E-07   -0.43558E-09  3120   0.103E-04    0.455E-05
DAV:  14    -0.133076870516E+04   -0.26252E-07   -0.17198E-09  3072   0.586E-05    0.268E-05
DAV:  15    -0.133076870518E+04   -0.25364E-07   -0.15656E-09  3072   0.535E-05    0.297E-05
DAV:  16    -0.133076870519E+04   -0.46275E-08   -0.31311E-10  3072   0.390E-05
  18 F= -.13497596E+04 E0= -.13497596E+04  d E =0.233401E-03  mag=    -0.0000
       N       E                     dE             d eps       ncg     rms          rms(c)
DAV:   1    -0.133076887191E+04   -0.16672E-03   -0.85089E-02  5024   0.194E-01    0.140E-01
DAV:   2    -0.133076866521E+04    0.20670E-03   -0.16851E-03  5184   0.289E-02    0.795E-02
DAV:   3    -0.133076861037E+04    0.54835E-04   -0.98852E-04  5184   0.199E-02    0.300E-02
DAV:   4    -0.133076859201E+04    0.18359E-04   -0.10096E-04  5344   0.654E-03    0.187E-02
DAV:   5    -0.133076858973E+04    0.22804E-05   -0.30019E-05  5472   0.382E-03    0.415E-03
DAV:   6    -0.133076858949E+04    0.23584E-06   -0.30791E-06  5376   0.138E-03    0.144E-03
DAV:   7    -0.133076858948E+04    0.15032E-07   -0.45495E-07  5440   0.487E-04    0.977E-04
DAV:   8    -0.133076858952E+04   -0.40454E-07   -0.52755E-08  4352   0.279E-04    0.433E-04
DAV:   9    -0.133076858958E+04   -0.61031E-07   -0.29988E-08  3744   0.221E-04    0.193E-04
DAV:  10    -0.133076858971E+04   -0.12614E-06   -0.14151E-08  3744   0.156E-04    0.149E-04
DAV:  11    -0.133076858982E+04   -0.10962E-06   -0.56590E-09  3296   0.117E-04    0.898E-05
DAV:  12    -0.133076858996E+04   -0.14271E-06   -0.94815E-09  3392   0.122E-04    0.616E-05
DAV:  13    -0.133076859002E+04   -0.63766E-07   -0.37595E-09  3200   0.824E-05    0.529E-05
DAV:  14    -0.133076859010E+04   -0.74957E-07   -0.42477E-09  3264   0.689E-05    0.339E-05
DAV:  15    -0.133076859014E+04   -0.37660E-07   -0.13900E-09  3072   0.507E-05    0.296E-05
DAV:  16    -0.133076859016E+04   -0.24447E-07   -0.57569E-10  3072   0.431E-05    0.152E-05
DAV:  17    -0.133076859018E+04   -0.18990E-07   -0.12960E-10  3072   0.353E-05    0.200E-05
DAV:  18    -0.133076859019E+04   -0.88330E-08    0.37472E-10  3040   0.231E-05
  19 F= -.13497592E+04 E0= -.13497592E+04  d E =0.399718E-03  mag=     0.0000
       N       E                     dE             d eps       ncg     rms          rms(c)
DAV:   1    -0.133076890079E+04   -0.31061E-03   -0.77920E-02  4992   0.193E-01    0.108E-01
DAV:   2    -0.133076885498E+04    0.45807E-04   -0.11520E-03  5248   0.228E-02    0.657E-02
DAV:   3    -0.133076883037E+04    0.24609E-04   -0.60235E-04  5248   0.156E-02    0.233E-02
DAV:   4    -0.133076881952E+04    0.10859E-04   -0.73530E-05  4864   0.508E-03    0.153E-02
DAV:   5    -0.133076881727E+04    0.22430E-05   -0.20660E-05  4864   0.294E-03    0.477E-03
DAV:   6    -0.133076881712E+04    0.15085E-06   -0.37119E-06  4928   0.126E-03    0.129E-03
DAV:   7    -0.133076881733E+04   -0.20771E-06   -0.52198E-07  5312   0.474E-04    0.944E-04
DAV:   8    -0.133076881753E+04   -0.20416E-06   -0.45152E-08  3744   0.200E-04    0.424E-04
DAV:   9    -0.133076881779E+04   -0.25182E-06   -0.49426E-08  4352   0.213E-04    0.219E-04
DAV:  10    -0.133076881796E+04   -0.17331E-06   -0.10375E-08  3456   0.112E-04    0.152E-04
DAV:  11    -0.133076881810E+04   -0.13801E-06   -0.58980E-09  3424   0.826E-05    0.763E-05
DAV:  12    -0.133076881823E+04   -0.13049E-06   -0.73102E-09  3472   0.885E-05    0.611E-05
DAV:  13    -0.133076881828E+04   -0.57436E-07   -0.28749E-09  3168   0.714E-05    0.469E-05
DAV:  14    -0.133076881833E+04   -0.45024E-07   -0.21834E-09  3136   0.585E-05    0.233E-05
DAV:  15    -0.133076881837E+04   -0.39014E-07   -0.20305E-09  3200   0.497E-05    0.313E-05
DAV:  16    -0.133076881838E+04   -0.11540E-07   -0.37064E-10  3008   0.349E-05    0.173E-05
DAV:  17    -0.133076881839E+04   -0.10958E-07   -0.31993E-11  3072   0.280E-05    0.149E-05
DAV:  18    -0.133076881839E+04   -0.93132E-09    0.37822E-10  2848   0.192E-05
  20 F= -.13497597E+04 E0= -.13497597E+04  d E =-.566984E-03  mag=     0.0000
       N       E                     dE             d eps       ncg     rms          rms(c)
DAV:   1    -0.133076783635E+04    0.98204E-03   -0.75553E-02  4992   0.166E-01    0.942E-02
DAV:   2    -0.133076780478E+04    0.31574E-04   -0.67565E-04  4704   0.149E-02    0.562E-02
DAV:   3    -0.133076779885E+04    0.59318E-05   -0.30753E-04  4720   0.107E-02    0.163E-02
DAV:   4    -0.133076779308E+04    0.57674E-05   -0.33921E-05  4672   0.360E-03    0.103E-02
DAV:   5    -0.133076779213E+04    0.94726E-06   -0.16014E-05  4640   0.246E-03    0.189E-03
DAV:   6    -0.133076779242E+04   -0.28548E-06   -0.94576E-07  4640   0.629E-04    0.981E-04
DAV:   7    -0.133076779273E+04   -0.30955E-06   -0.15854E-07  4448   0.253E-04    0.608E-04
DAV:   8    -0.133076779315E+04   -0.42171E-06   -0.42499E-08  3776   0.189E-04    0.237E-04
DAV:   9    -0.133076779351E+04   -0.36099E-06   -0.25349E-08  3904   0.138E-04    0.178E-04
DAV:  10    -0.133076779395E+04   -0.43977E-06   -0.23267E-08  3648   0.125E-04    0.944E-05
DAV:  11    -0.133076779412E+04   -0.17302E-06   -0.76761E-09  3376   0.922E-05    0.712E-05
DAV:  12    -0.133076779425E+04   -0.13300E-06   -0.52209E-09  3264   0.784E-05    0.483E-05
DAV:  13    -0.133076779435E+04   -0.96057E-07   -0.35642E-09  3232   0.600E-05    0.388E-05
DAV:  14    -0.133076779442E+04   -0.72701E-07   -0.26347E-09  3200   0.558E-05    0.221E-05
DAV:  15    -0.133076779446E+04   -0.39916E-07   -0.18228E-09  3152   0.526E-05    0.211E-05
DAV:  16    -0.133076779447E+04   -0.86438E-08   -0.13902E-10  3136   0.328E-05
  21 F= -.13497587E+04 E0= -.13497587E+04  d E =0.107334E-02  mag=     0.0000
       N       E                     dE             d eps       ncg     rms          rms(c)
DAV:   1    -0.133076935771E+04   -0.15632E-02   -0.79945E-02  4928   0.172E-01    0.119E-01
DAV:   2    -0.133076924495E+04    0.11276E-03   -0.12060E-03  5056   0.223E-02    0.680E-02
DAV:   3    -0.133076921998E+04    0.24979E-04   -0.66146E-04  5280   0.158E-02    0.243E-02
DAV:   4    -0.133076920781E+04    0.12163E-04   -0.63798E-05  4736   0.502E-03    0.156E-02
DAV:   5    -0.133076920597E+04    0.18432E-05   -0.27221E-05  4992   0.335E-03    0.288E-03
DAV:   6    -0.133076920599E+04   -0.20838E-07   -0.20605E-06  4992   0.105E-03    0.120E-03
DAV:   7    -0.133076920612E+04   -0.13356E-06   -0.34380E-07  5120   0.376E-04    0.978E-04
DAV:   8    -0.133076920624E+04   -0.11554E-06   -0.78333E-08  4208   0.255E-04    0.291E-04
DAV:   9    -0.133076920635E+04   -0.11042E-06   -0.27953E-08  4000   0.176E-04    0.245E-04
DAV:  10    -0.133076920645E+04   -0.99331E-07   -0.82817E-09  3392   0.119E-04    0.111E-04
DAV:  11    -0.133076920655E+04   -0.96159E-07   -0.77747E-09  3376   0.118E-04    0.686E-05
DAV:  12    -0.133076920661E+04   -0.60973E-07   -0.67915E-09  3376   0.111E-04    0.493E-05
DAV:  13    -0.133076920664E+04   -0.37224E-07   -0.35136E-09  3168   0.799E-05    0.395E-05
DAV:  14    -0.133076920668E+04   -0.35958E-07   -0.26044E-09  3200   0.592E-05    0.204E-05
DAV:  15    -0.133076920670E+04   -0.17782E-07   -0.14141E-09  3136   0.483E-05    0.223E-05
DAV:  16    -0.133076920670E+04   -0.72469E-08   -0.18556E-10  3136   0.325E-05
  22 F= -.13497599E+04 E0= -.13497599E+04  d E =-.128004E-02  mag=     0.0000
       N       E                     dE             d eps       ncg     rms          rms(c)
DAV:   1    -0.133076876565E+04    0.44105E-03   -0.75287E-02  4928   0.189E-01    0.909E-02
DAV:   2    -0.133076874178E+04    0.23869E-04   -0.62735E-04  5280   0.168E-02    0.530E-02
DAV:   3    -0.133076873590E+04    0.58728E-05   -0.26628E-04  5440   0.103E-02    0.145E-02
DAV:   4    -0.133076873226E+04    0.36424E-05   -0.27266E-05  5024   0.330E-03    0.948E-03
DAV:   5    -0.133076873101E+04    0.12541E-05   -0.14514E-05  4992   0.246E-03    0.189E-03
DAV:   6    -0.133076873111E+04   -0.10603E-06   -0.85883E-07  4880   0.738E-04    0.118E-03
DAV:   7    -0.133076873120E+04   -0.83295E-07   -0.16638E-07  4240   0.278E-04    0.580E-04
DAV:   8    -0.133076873137E+04   -0.17291E-06   -0.39680E-08  3936   0.155E-04    0.219E-04
DAV:   9    -0.133076873153E+04   -0.16100E-06   -0.11931E-08  3680   0.972E-05    0.123E-04
DAV:  10    -0.133076873173E+04   -0.20248E-06   -0.67632E-09  3520   0.763E-05    0.757E-05
DAV:  11    -0.133076873190E+04   -0.16911E-06   -0.60284E-09  3360   0.686E-05    0.545E-05
DAV:  12    -0.133076873201E+04   -0.10683E-06   -0.28424E-09  3296   0.576E-05    0.362E-05
DAV:  13    -0.133076873212E+04   -0.10800E-06   -0.33775E-09  3328   0.514E-05    0.289E-05
DAV:  14    -0.133076873219E+04   -0.73851E-07   -0.16916E-09  3136   0.489E-05    0.159E-05
DAV:  15    -0.133076873223E+04   -0.37035E-07   -0.83198E-10  3072   0.427E-05    0.142E-05
DAV:  16    -0.133076873224E+04   -0.11059E-07    0.18939E-10  3072   0.259E-05    0.120E-05
DAV:  17    -0.133076873226E+04   -0.16749E-07    0.44061E-10  3072   0.218E-05    0.103E-05
DAV:  18    -0.133076873226E+04   -0.75088E-08    0.60042E-10  3040   0.150E-05
  23 F= -.13497596E+04 E0= -.13497596E+04  d E =0.308240E-03  mag=    -0.0000
       N       E                     dE             d eps       ncg     rms          rms(c)
DAV:   1    -0.133076891824E+04   -0.18598E-03   -0.78300E-02  4960   0.185E-01    0.111E-01
DAV:   2    -0.133076882703E+04    0.91212E-04   -0.97331E-04  5280   0.222E-02    0.641E-02
DAV:   3    -0.133076880363E+04    0.23395E-04   -0.54464E-04  5408   0.147E-02    0.219E-02
DAV:   4    -0.133076879354E+04    0.10096E-04   -0.55100E-05  5248   0.492E-03    0.136E-02
DAV:   5    -0.133076879202E+04    0.15165E-05   -0.23893E-05  4928   0.326E-03    0.242E-03
DAV:   6    -0.133076879207E+04   -0.54613E-07   -0.14389E-06  5184   0.983E-04    0.117E-03
DAV:   7    -0.133076879219E+04   -0.11123E-06   -0.24705E-07  5072   0.332E-04    0.796E-04
DAV:   8    -0.133076879229E+04   -0.10603E-06   -0.38597E-08  3904   0.220E-04    0.294E-04
DAV:   9    -0.133076879240E+04   -0.10728E-06   -0.18105E-08  3808   0.146E-04    0.161E-04
DAV:  10    -0.133076879249E+04   -0.93671E-07   -0.62388E-09  3392   0.108E-04    0.101E-04
DAV:  11    -0.133076879257E+04   -0.79599E-07   -0.24544E-09  3168   0.818E-05    0.647E-05
DAV:  12    -0.133076879266E+04   -0.89145E-07   -0.50908E-09  3264   0.994E-05    0.460E-05
DAV:  13    -0.133076879269E+04   -0.32654E-07   -0.18775E-09  3136   0.680E-05    0.421E-05
DAV:  14    -0.133076879273E+04   -0.33862E-07   -0.14808E-09  3072   0.564E-05    0.312E-05
DAV:  15    -0.133076879275E+04   -0.20984E-07   -0.10787E-09  3072   0.451E-05    0.289E-05
DAV:  16    -0.133076879275E+04   -0.54861E-08   -0.20967E-10  3072   0.335E-05
  24 F= -.13497597E+04 E0= -.13497597E+04  d E =-.800362E-04  mag=    -0.0000
       N       E                     dE             d eps       ncg     rms          rms(c)
DAV:   1    -0.133076873191E+04    0.60836E-04   -0.83391E-02  5024   0.189E-01    0.132E-01
DAV:   2    -0.133076855663E+04    0.17528E-03   -0.14051E-03  4928   0.263E-02    0.753E-02
DAV:   3    -0.133076851457E+04    0.42062E-04   -0.87953E-04  5312   0.184E-02    0.283E-02
DAV:   4    -0.133076849807E+04    0.16498E-04   -0.88348E-05  4864   0.598E-03    0.178E-02
DAV:   5    -0.133076849501E+04    0.30651E-05   -0.29221E-05  5120   0.354E-03    0.374E-03
DAV:   6    -0.133076849488E+04    0.13190E-06   -0.25655E-06  5280   0.119E-03    0.124E-03
DAV:   7    -0.133076849497E+04   -0.99084E-07   -0.40525E-07  5120   0.432E-04    0.960E-04
DAV:   8    -0.133076849521E+04   -0.23302E-06   -0.61935E-08  4128   0.279E-04    0.367E-04
DAV:   9    -0.133076849545E+04   -0.23830E-06   -0.42732E-08  4288   0.215E-04    0.245E-04
DAV:  10    -0.133076849570E+04   -0.25320E-06   -0.10832E-08  3584   0.119E-04    0.137E-04
DAV:  11    -0.133076849598E+04   -0.28353E-06   -0.15137E-08  3648   0.129E-04    0.736E-05
DAV:  12    -0.133076849618E+04   -0.20157E-06   -0.10949E-08  3552   0.118E-04    0.582E-05
DAV:  13    -0.133076849628E+04   -0.98080E-07   -0.44501E-09  3264   0.865E-05    0.455E-05
DAV:  14    -0.133076849637E+04   -0.87268E-07   -0.33880E-09  3264   0.652E-05    0.236E-05
DAV:  15    -0.133076849644E+04   -0.67099E-07   -0.29877E-09  3216   0.568E-05    0.238E-05
DAV:  16    -0.133076849646E+04   -0.22861E-07   -0.79056E-10  3136   0.442E-05    0.173E-05
DAV:  17    -0.133076849649E+04   -0.26397E-07   -0.40553E-10  3072   0.356E-05    0.163E-05
DAV:  18    -0.133076849650E+04   -0.11161E-07    0.28832E-10  3072   0.232E-05    0.136E-05
DAV:  19    -0.133076849650E+04   -0.43365E-08    0.60134E-10  2976   0.197E-05
  25 F= -.13497591E+04 E0= -.13497591E+04  d E =0.590744E-03  mag=     0.0000
       N       E                     dE             d eps       ncg     rms          rms(c)
DAV:   1    -0.133076886264E+04   -0.36615E-03   -0.77799E-02  4992   0.176E-01    0.106E-01
DAV:   2    -0.133076882228E+04    0.40367E-04   -0.12265E-03  5248   0.225E-02    0.656E-02
DAV:   3    -0.133076879324E+04    0.29037E-04   -0.63845E-04  5408   0.169E-02    0.230E-02
DAV:   4    -0.133076878263E+04    0.10611E-04   -0.72757E-05  5376   0.603E-03    0.142E-02
DAV:   5    -0.133076878153E+04    0.10997E-05   -0.27733E-05  5184   0.368E-03    0.305E-03
DAV:   6    -0.133076878173E+04   -0.19812E-06   -0.17098E-06  5264   0.107E-03    0.144E-03
DAV:   7    -0.133076878202E+04   -0.28915E-06   -0.39704E-07  5120   0.436E-04    0.661E-04
DAV:   8    -0.133076878222E+04   -0.20387E-06   -0.39717E-08  3840   0.230E-04    0.362E-04
DAV:   9    -0.133076878243E+04   -0.21185E-06   -0.16924E-08  3872   0.134E-04    0.160E-04
DAV:  10    -0.133076878258E+04   -0.15217E-06   -0.65964E-09  3424   0.956E-05    0.870E-05
DAV:  11    -0.133076878275E+04   -0.16838E-06   -0.68777E-09  3392   0.900E-05    0.666E-05
DAV:  12    -0.133076878285E+04   -0.98822E-07   -0.45534E-09  3296   0.875E-05    0.377E-05
DAV:  13    -0.133076878292E+04   -0.68379E-07   -0.36032E-09  3168   0.784E-05    0.336E-05
DAV:  14    -0.133076878294E+04   -0.23734E-07   -0.10597E-09  3136   0.533E-05    0.261E-05
DAV:  15    -0.133076878298E+04   -0.36060E-07   -0.13141E-09  3072   0.515E-05    0.313E-05
DAV:  16    -0.133076878299E+04   -0.74215E-08   -0.21069E-10  3072   0.383E-05
  26 F= -.13497597E+04 E0= -.13497597E+04  d E =-.581652E-03  mag=     0.0000
       N       E                     dE             d eps       ncg     rms          rms(c)
DAV:   1    -0.133076885510E+04   -0.72123E-04   -0.78511E-02  4992   0.140E-01    0.113E-01
DAV:   2    -0.133076872960E+04    0.12550E-03   -0.10258E-03  5312   0.177E-02    0.625E-02
DAV:   3    -0.133076871443E+04    0.15174E-04   -0.47055E-04  5408   0.118E-02    0.216E-02
DAV:   4    -0.133076870597E+04    0.84630E-05   -0.62640E-05  5504   0.531E-03    0.109E-02
DAV:   5    -0.133076870693E+04   -0.96641E-06   -0.11038E-05  5952   0.252E-03    0.254E-03
DAV:   6    -0.133076870719E+04   -0.25911E-06   -0.73757E-07  5600   0.903E-04    0.126E-03
DAV:   7    -0.133076870752E+04   -0.33241E-06   -0.15831E-07  4960   0.315E-04    0.546E-04
DAV:   8    -0.133076870790E+04   -0.37569E-06   -0.44758E-08  4544   0.252E-04    0.321E-04
DAV:   9    -0.133076870817E+04   -0.26959E-06   -0.11828E-08  3680   0.152E-04    0.172E-04
DAV:  10    -0.133076870849E+04   -0.32480E-06   -0.14773E-08  3552   0.110E-04    0.116E-04
DAV:  11    -0.133076870869E+04   -0.19287E-06   -0.57498E-09  3360   0.107E-04    0.780E-05
DAV:  12    -0.133076870894E+04   -0.25761E-06   -0.15804E-08  3616   0.141E-04    0.106E-04
DAV:  13    -0.133076870900E+04   -0.53318E-07   -0.27437E-09  3136   0.888E-05    0.817E-05
DAV:  14    -0.133076870906E+04   -0.63461E-07   -0.45888E-09  3040   0.921E-05    0.658E-05
DAV:  15    -0.133076870910E+04   -0.35783E-07   -0.13386E-09  3072   0.613E-05    0.571E-05
DAV:  16    -0.133076870911E+04   -0.12995E-07   -0.27965E-10  3072   0.395E-05    0.328E-05
DAV:  17    -0.133076870912E+04   -0.65338E-08    0.20431E-10  3040   0.334E-05
  27 F= -.13497596E+04 E0= -.13497596E+04  d E =0.106436E-03  mag=     0.0000
       N       E                     dE             d eps       ncg     rms          rms(c)
DAV:   1    -0.133076850038E+04    0.20873E-03   -0.84137E-02  4992   0.144E-01    0.136E-01
DAV:   2    -0.133076829210E+04    0.20828E-03   -0.18165E-03  5280   0.239E-02    0.750E-02
DAV:   3    -0.133076824669E+04    0.45408E-04   -0.70399E-04  5440   0.138E-02    0.270E-02
DAV:   4    -0.133076823289E+04    0.13806E-04   -0.93155E-05  5504   0.622E-03    0.134E-02
DAV:   5    -0.133076823275E+04    0.13411E-06   -0.12932E-05  5952   0.279E-03    0.308E-03
DAV:   6    -0.133076823298E+04   -0.22525E-06   -0.10529E-06  5728   0.115E-03    0.146E-03
DAV:   7    -0.133076823335E+04   -0.36992E-06   -0.23693E-07  5248   0.449E-04    0.572E-04
DAV:   8    -0.133076823380E+04   -0.45191E-06   -0.70913E-08  4736   0.274E-04    0.373E-04
DAV:   9    -0.133076823421E+04   -0.40643E-06   -0.15230E-08  3552   0.160E-04    0.221E-04
DAV:  10    -0.133076823481E+04   -0.60344E-06   -0.34283E-08  4128   0.166E-04    0.152E-04
DAV:  11    -0.133076823516E+04   -0.35003E-06   -0.12103E-08  3584   0.115E-04    0.978E-05
DAV:  12    -0.133076823559E+04   -0.42599E-06   -0.26109E-08  3968   0.129E-04    0.152E-04
DAV:  13    -0.133076823568E+04   -0.89625E-07   -0.27952E-09  3296   0.856E-05    0.936E-05
DAV:  14    -0.133076823585E+04   -0.17374E-06   -0.11046E-08  3360   0.129E-04    0.108E-04
DAV:  15    -0.133076823590E+04   -0.46668E-07   -0.16103E-09  3072   0.759E-05    0.837E-05
DAV:  16    -0.133076823594E+04   -0.41066E-07   -0.10301E-09  3072   0.557E-05    0.260E-05
DAV:  17    -0.133076823599E+04   -0.46697E-07   -0.93686E-10  3072   0.548E-05    0.230E-05
DAV:  18    -0.133076823601E+04   -0.25262E-07   -0.38964E-10  3072   0.379E-05    0.437E-05
DAV:  19    -0.133076823602E+04   -0.11729E-07    0.30749E-10  3040   0.258E-05    0.333E-05
DAV:  20    -0.133076823603E+04   -0.11394E-07    0.16625E-10  3040   0.374E-05    0.217E-05
DAV:  21    -0.133076823603E+04   -0.69849E-09    0.70117E-10  2752   0.173E-05
  28 F= -.13497592E+04 E0= -.13497592E+04  d E =0.420865E-03  mag=     0.0000
       N       E                     dE             d eps       ncg     rms          rms(c)
DAV:   1    -0.133076893417E+04   -0.69814E-03   -0.71587E-02  5152   0.160E-01    0.104E-01
DAV:   2    -0.133076890889E+04    0.25278E-04   -0.11582E-03  5440   0.250E-02    0.605E-02
DAV:   3    -0.133076890490E+04    0.39897E-05   -0.42953E-04  5568   0.145E-02    0.232E-02
DAV:   4    -0.133076889495E+04    0.99529E-05   -0.65998E-05  5984   0.668E-03    0.112E-02
DAV:   5    -0.133076889550E+04   -0.54410E-06   -0.10180E-05  5696   0.251E-03    0.258E-03
DAV:   6    -0.133076889571E+04   -0.20987E-06   -0.60999E-07  5760   0.855E-04    0.139E-03
DAV:   7    -0.133076889612E+04   -0.41892E-06   -0.21383E-07  4976   0.486E-04    0.652E-04
DAV:   8    -0.133076889658E+04   -0.45859E-06   -0.60329E-08  4864   0.290E-04    0.389E-04
DAV:   9    -0.133076889715E+04   -0.56520E-06   -0.26969E-08  4096   0.179E-04    0.235E-04
DAV:  10    -0.133076889784E+04   -0.68791E-06   -0.45359E-08  4384   0.204E-04    0.153E-04
DAV:  11    -0.133076889821E+04   -0.37493E-06   -0.10936E-08  3584   0.905E-05    0.109E-04
DAV:  12    -0.133076889859E+04   -0.38014E-06   -0.16450E-08  3712   0.858E-05    0.703E-05
DAV:  13    -0.133076889876E+04   -0.16467E-06   -0.42119E-09  3392   0.531E-05    0.514E-05
DAV:  14    -0.133076889890E+04   -0.14251E-06   -0.37140E-09  3200   0.572E-05    0.324E-05
DAV:  15    -0.133076889897E+04   -0.66284E-07   -0.14597E-09  3072   0.431E-05    0.305E-05
DAV:  16    -0.133076889900E+04   -0.34590E-07   -0.51945E-10  3072   0.318E-05    0.169E-05
DAV:  17    -0.133076889902E+04   -0.24156E-07   -0.17685E-10  3072   0.320E-05    0.148E-05
DAV:  18    -0.133076889904E+04   -0.11132E-07    0.66984E-11  3072   0.242E-05    0.182E-05
DAV:  19    -0.133076889904E+04   -0.14552E-08    0.61274E-10  2752   0.158E-05
  29 F= -.13497598E+04 E0= -.13497598E+04  d E =-.642988E-03  mag=     0.0000
       N       E                     dE             d eps       ncg     rms          rms(c)
DAV:   1    -0.133076778235E+04    0.11167E-02   -0.61253E-02  5120   0.128E-01    0.785E-02
DAV:   2    -0.133076782564E+04   -0.43287E-04   -0.48647E-04  5600   0.183E-02    0.448E-02
DAV:   3    -0.133076785274E+04   -0.27095E-04   -0.75815E-05  5888   0.881E-03    0.149E-02
DAV:   4    -0.133076785356E+04   -0.82792E-06   -0.33761E-05  6400   0.679E-03    0.636E-03
DAV:   5    -0.133076785334E+04    0.22470E-06   -0.40661E-06  6464   0.228E-03    0.214E-03
DAV:   6    -0.133076785402E+04   -0.67579E-06   -0.10454E-06  4960   0.112E-03    0.130E-03
DAV:   7    -0.133076785458E+04   -0.56362E-06   -0.18413E-07  5536   0.594E-04    0.546E-04
DAV:   8    -0.133076785506E+04   -0.48002E-06   -0.76326E-08  4992   0.321E-04    0.311E-04
DAV:   9    -0.133076785562E+04   -0.56063E-06   -0.30492E-08  4352   0.191E-04    0.168E-04
DAV:  10    -0.133076785610E+04   -0.48251E-06   -0.28575E-08  4448   0.157E-04    0.127E-04
DAV:  11    -0.133076785642E+04   -0.31972E-06   -0.13305E-08  3776   0.111E-04    0.771E-05
DAV:  12    -0.133076785664E+04   -0.21861E-06   -0.90381E-09  3680   0.851E-05    0.784E-05
DAV:  13    -0.133076785678E+04   -0.13584E-06   -0.47191E-09  3360   0.653E-05    0.567E-05
DAV:  14    -0.133076785687E+04   -0.94340E-07   -0.46937E-09  3392   0.706E-05    0.263E-05
DAV:  15    -0.133076785690E+04   -0.30617E-07   -0.13970E-09  3136   0.602E-05    0.255E-05
DAV:  16    -0.133076785694E+04   -0.35230E-07   -0.86423E-10  3072   0.436E-05    0.137E-05
DAV:  17    -0.133076785696E+04   -0.18248E-07   -0.69040E-11  3072   0.314E-05    0.156E-05
DAV:  18    -0.133076785696E+04   -0.70868E-08    0.40982E-10  2944   0.188E-05
  30 F= -.13497589E+04 E0= -.13497589E+04  d E =0.945085E-03  mag=    -0.0000
       N       E                     dE             d eps       ncg     rms          rms(c)
DAV:   1    -0.133076820491E+04   -0.34795E-03   -0.60358E-02  5120   0.127E-01    0.687E-02
DAV:   2    -0.133076826170E+04   -0.56788E-04   -0.34786E-04  5536   0.155E-02    0.419E-02
DAV:   3    -0.133076829514E+04   -0.33446E-04   -0.35073E-05  6144   0.709E-03    0.678E-03
DAV:   4    -0.133076829591E+04   -0.76479E-06   -0.40797E-06  6624   0.262E-03    0.272E-03
DAV:   5    -0.133076829617E+04   -0.26170E-06   -0.57094E-07  5840   0.108E-03    0.139E-03
DAV:   6    -0.133076829647E+04   -0.30008E-06   -0.15106E-07  5728   0.635E-04    0.724E-04
DAV:   7    -0.133076829689E+04   -0.41883E-06   -0.75087E-08  5024   0.463E-04    0.383E-04
DAV:   8    -0.133076829736E+04   -0.47602E-06   -0.54937E-08  4992   0.359E-04    0.234E-04
DAV:   9    -0.133076829778E+04   -0.41611E-06   -0.21052E-08  4096   0.225E-04    0.154E-04
DAV:  10    -0.133076829822E+04   -0.44392E-06   -0.21567E-08  4096   0.194E-04    0.970E-05
DAV:  11    -0.133076829849E+04   -0.26358E-06   -0.12619E-08  3840   0.133E-04    0.649E-05
DAV:  12    -0.133076829866E+04   -0.17115E-06   -0.48068E-09  3328   0.878E-05    0.425E-05
DAV:  13    -0.133076829878E+04   -0.12283E-06   -0.37447E-09  3200   0.725E-05    0.290E-05
DAV:  14    -0.133076829884E+04   -0.56054E-07   -0.22472E-09  3088   0.764E-05    0.198E-05
DAV:  15    -0.133076829888E+04   -0.38766E-07   -0.15429E-09  3072   0.596E-05    0.155E-05
DAV:  16    -0.133076829890E+04   -0.19310E-07   -0.45146E-10  3072   0.364E-05    0.125E-05
DAV:  17    -0.133076829890E+04   -0.93423E-08    0.13498E-10  3072   0.268E-05
  31 F= -.13497590E+04 E0= -.13497590E+04  d E =-.164257E-03  mag=    -0.0000
       N       E                     dE             d eps       ncg     rms          rms(c)
DAV:   1    -0.133076889555E+04   -0.59666E-03   -0.70634E-02  5184   0.181E-01    0.101E-01
DAV:   2    -0.133076886578E+04    0.29775E-04   -0.10608E-03  5728   0.292E-02    0.562E-02
DAV:   3    -0.133076886544E+04    0.33370E-06   -0.24337E-04  5536   0.151E-02    0.233E-02
DAV:   4    -0.133076886340E+04    0.20445E-05   -0.62941E-05  6176   0.897E-03    0.105E-02
DAV:   5    -0.133076886405E+04   -0.65324E-06   -0.99656E-06  6272   0.370E-03    0.286E-03
DAV:   6    -0.133076886441E+04   -0.36033E-06   -0.95338E-07  5248   0.929E-04    0.197E-03
DAV:   7    -0.133076886488E+04   -0.46189E-06   -0.62854E-07  4704   0.840E-04    0.660E-04
DAV:   8    -0.133076886536E+04   -0.48603E-06   -0.73043E-08  5184   0.349E-04    0.487E-04
DAV:   9    -0.133076886577E+04   -0.40721E-06   -0.36135E-08  4480   0.272E-04    0.240E-04
DAV:  10    -0.133076886615E+04   -0.38602E-06   -0.23784E-08  4416   0.227E-04    0.171E-04
DAV:  11    -0.133076886650E+04   -0.34754E-06   -0.17142E-08  3872   0.190E-04    0.825E-05
DAV:  12    -0.133076886668E+04   -0.17915E-06   -0.76233E-09  3648   0.104E-04    0.742E-05
DAV:  13    -0.133076886681E+04   -0.12960E-06   -0.26999E-09  3168   0.646E-05    0.394E-05
DAV:  14    -0.133076886692E+04   -0.10790E-06   -0.43138E-09  3264   0.632E-05    0.349E-05
DAV:  15    -0.133076886694E+04   -0.25946E-07   -0.53032E-10  3136   0.443E-05    0.276E-05
DAV:  16    -0.133076886698E+04   -0.39625E-07   -0.48930E-10  3072   0.386E-05    0.226E-05
DAV:  17    -0.133076886700E+04   -0.17724E-07    0.13526E-10  3072   0.285E-05    0.185E-05
DAV:  18    -0.133076886701E+04   -0.11365E-07    0.41776E-10  3072   0.256E-05    0.101E-05
DAV:  19    -0.133076886702E+04   -0.58208E-08    0.49970E-10  3072   0.220E-05
  32 F= -.13497598E+04 E0= -.13497598E+04  d E =-.720116E-03  mag=     0.0000
       N       E                     dE             d eps       ncg     rms          rms(c)
DAV:   1    -0.133076876524E+04    0.10177E-03   -0.77602E-02  4432   0.182E-01    0.106E-01
DAV:   2    -0.133076870382E+04    0.61424E-04   -0.95856E-04  5056   0.200E-02    0.625E-02
DAV:   3    -0.133076868106E+04    0.22757E-04   -0.51402E-04  5312   0.144E-02    0.216E-02
DAV:   4    -0.133076867133E+04    0.97312E-05   -0.48170E-05  5216   0.474E-03    0.140E-02
DAV:   5    -0.133076866950E+04    0.18257E-05   -0.24398E-05  4800   0.332E-03    0.277E-03
DAV:   6    -0.133076867001E+04   -0.50844E-06   -0.20232E-06  5088   0.113E-03    0.125E-03
DAV:   7    -0.133076867062E+04   -0.61009E-06   -0.37732E-07  5440   0.448E-04    0.101E-03
DAV:   8    -0.133076867138E+04   -0.75474E-06   -0.66865E-08  4128   0.217E-04    0.433E-04
DAV:   9    -0.133076867228E+04   -0.90446E-06   -0.71583E-08  4032   0.175E-04    0.290E-04
DAV:  10    -0.133076867310E+04   -0.81814E-06   -0.35043E-08  3840   0.131E-04    0.180E-04
DAV:  11    -0.133076867383E+04   -0.73227E-06   -0.39060E-08  3872   0.131E-04    0.969E-05
DAV:  12    -0.133076867432E+04   -0.49043E-06   -0.24604E-08  3680   0.103E-04    0.120E-04
DAV:  13    -0.133076867454E+04   -0.21809E-06   -0.58254E-09  3232   0.674E-05    0.668E-05
DAV:  14    -0.133076867479E+04   -0.25130E-06   -0.11372E-08  3552   0.747E-05    0.708E-05
DAV:  15    -0.133076867484E+04   -0.51383E-07   -0.96333E-10  3072   0.458E-05    0.546E-05
DAV:  16    -0.133076867492E+04   -0.76499E-07   -0.14826E-09  3072   0.473E-05    0.266E-05
DAV:  17    -0.133076867495E+04   -0.32713E-07   -0.29398E-10  3072   0.407E-05    0.313E-05
DAV:  18    -0.133076867497E+04   -0.15643E-07    0.37640E-10  3072   0.248E-05    0.203E-05
DAV:  19    -0.133076867498E+04   -0.17622E-07    0.40844E-10  3072   0.221E-05    0.973E-06
DAV:  20    -0.133076867499E+04   -0.40745E-08    0.67408E-10  3040   0.142E-05
  33 F= -.13497596E+04 E0= -.13497596E+04  d E =0.198183E-03  mag=    -0.0000
       N       E                     dE             d eps       ncg     rms          rms(c)
DAV:   1    -0.133076842900E+04    0.24599E-03   -0.72202E-02  4416   0.179E-01    0.776E-02
DAV:   2    -0.133076844403E+04   -0.15029E-04   -0.50618E-04  4928   0.135E-02    0.472E-02
DAV:   3    -0.133076844337E+04    0.66144E-06   -0.10962E-04  5664   0.753E-03    0.824E-03
DAV:   4    -0.133076844246E+04    0.90162E-06   -0.13265E-05  5312   0.245E-03    0.547E-03
DAV:   5    -0.133076844243E+04    0.37762E-07   -0.62803E-06  4800   0.175E-03    0.156E-03
DAV:   6    -0.133076844265E+04   -0.22650E-06   -0.60618E-07  5120   0.659E-04    0.797E-04
DAV:   7    -0.133076844309E+04   -0.43755E-06   -0.86670E-08  4160   0.247E-04    0.366E-04
DAV:   8    -0.133076844361E+04   -0.52132E-06   -0.45431E-08  3968   0.138E-04    0.217E-04
DAV:   9    -0.133076844414E+04   -0.52471E-06   -0.22726E-08  3840   0.105E-04    0.130E-04
DAV:  10    -0.133076844461E+04   -0.47109E-06   -0.22010E-08  3904   0.819E-05    0.858E-05
DAV:  11    -0.133076844492E+04   -0.31336E-06   -0.11405E-08  3424   0.649E-05    0.697E-05
DAV:  12    -0.133076844516E+04   -0.24342E-06   -0.91095E-09  3360   0.578E-05    0.405E-05
DAV:  13    -0.133076844534E+04   -0.17755E-06   -0.87610E-09  3392   0.586E-05    0.254E-05
DAV:  14    -0.133076844540E+04   -0.59314E-07   -0.15655E-09  3136   0.440E-05    0.197E-05
DAV:  15    -0.133076844544E+04   -0.36263E-07   -0.65766E-10  3136   0.340E-05    0.133E-05
DAV:  16    -0.133076844546E+04   -0.21857E-07    0.34204E-11  3104   0.259E-05    0.936E-06
DAV:  17    -0.133076844547E+04   -0.88039E-08    0.38017E-10  3072   0.201E-05
  34 F= -.13497593E+04 E0= -.13497593E+04  d E =0.302350E-03  mag=    -0.0000
       N       E                     dE             d eps       ncg     rms          rms(c)
DAV:   1    -0.133076749721E+04    0.94825E-03   -0.28439E-01  4992   0.388E-01    0.130E-01
DAV:   2    -0.133076754876E+04   -0.51555E-04   -0.31084E-03  5248   0.381E-02    0.813E-02
DAV:   3    -0.133076746449E+04    0.84268E-04   -0.71177E-04  5440   0.175E-02    0.257E-02
DAV:   4    -0.133076746776E+04   -0.32676E-05   -0.11018E-04  5408   0.585E-03    0.130E-02
DAV:   5    -0.133076746686E+04    0.90472E-06   -0.16378E-05  5680   0.282E-03    0.472E-03
DAV:   6    -0.133076746734E+04   -0.48851E-06   -0.21816E-06  5184   0.130E-03    0.170E-03
DAV:   7    -0.133076746780E+04   -0.45971E-06   -0.40269E-07  5632   0.513E-04    0.751E-04
DAV:   8    -0.133076746830E+04   -0.50043E-06   -0.70136E-08  4544   0.246E-04    0.361E-04
DAV:   9    -0.133076746866E+04   -0.35482E-06   -0.19053E-08  3776   0.156E-04    0.182E-04
DAV:  10    -0.133076746903E+04   -0.37327E-06   -0.15879E-08  3776   0.112E-04    0.123E-04
DAV:  11    -0.133076746936E+04   -0.33047E-06   -0.11160E-08  3456   0.942E-05    0.693E-05
DAV:  12    -0.133076746967E+04   -0.31060E-06   -0.16528E-08  3840   0.102E-04    0.639E-05
DAV:  13    -0.133076746980E+04   -0.12908E-06   -0.46030E-09  3264   0.870E-05    0.374E-05
DAV:  14    -0.133076746990E+04   -0.98662E-07   -0.40656E-09  3136   0.752E-05    0.351E-05
DAV:  15    -0.133076746993E+04   -0.32756E-07   -0.92167E-10  3072   0.499E-05    0.284E-05
DAV:  16    -0.133076746997E+04   -0.34735E-07   -0.77314E-10  3072   0.449E-05    0.163E-05
DAV:  17    -0.133076746998E+04   -0.12180E-07   -0.69526E-11  3072   0.340E-05    0.176E-05
DAV:  18    -0.133076746999E+04   -0.82073E-08    0.42071E-10  3040   0.191E-05
  35 F= -.13497583E+04 E0= -.13497583E+04  d E =0.931891E-03  mag=    -0.0000
       N       E                     dE             d eps       ncg     rms          rms(c)
DAV:   1    -0.133076662966E+04    0.84032E-03   -0.48995E-01  4992   0.524E-01    0.141E-01
DAV:   2    -0.133076665881E+04   -0.29155E-04   -0.35825E-03  5248   0.411E-02    0.875E-02
DAV:   3    -0.133076655245E+04    0.10636E-03   -0.71776E-04  5440   0.174E-02    0.225E-02
DAV:   4    -0.133076656112E+04   -0.86701E-05   -0.14976E-04  6016   0.545E-03    0.101E-02
DAV:   5    -0.133076656073E+04    0.38798E-06   -0.11568E-05  5600   0.185E-03    0.466E-03
DAV:   6    -0.133076656164E+04   -0.90638E-06   -0.12089E-06  5280   0.988E-04    0.167E-03
DAV:   7    -0.133076656270E+04   -0.10599E-05   -0.40112E-07  5088   0.564E-04    0.634E-04
DAV:   8    -0.133076656360E+04   -0.89964E-06   -0.88544E-08  4320   0.252E-04    0.415E-04
DAV:   9    -0.133076656462E+04   -0.10256E-05   -0.40291E-08  4160   0.181E-04    0.232E-04
DAV:  10    -0.133076656586E+04   -0.12367E-05   -0.63516E-08  4160   0.184E-04    0.159E-04
DAV:  11    -0.133076656641E+04   -0.54800E-06   -0.19653E-08  3808   0.113E-04    0.111E-04
DAV:  12    -0.133076656688E+04   -0.47246E-06   -0.15289E-08  3552   0.867E-05    0.645E-05
DAV:  13    -0.133076656719E+04   -0.30790E-06   -0.10671E-08  3456   0.746E-05    0.425E-05
DAV:  14    -0.133076656732E+04   -0.12937E-06   -0.36590E-09  3168   0.591E-05    0.309E-05
DAV:  15    -0.133076656740E+04   -0.80021E-07   -0.21197E-09  3104   0.471E-05    0.204E-05
DAV:  16    -0.133076656745E+04   -0.52809E-07   -0.15904E-09  3072   0.498E-05    0.136E-05
DAV:  17    -0.133076656747E+04   -0.16735E-07   -0.52891E-10  3072   0.404E-05    0.127E-05
DAV:  18    -0.133076656748E+04   -0.80909E-08    0.22970E-10  3072   0.215E-05
  36 F= -.13497575E+04 E0= -.13497575E+04  d E =0.866093E-03  mag=    -0.0000
       N       E                     dE             d eps       ncg     rms          rms(c)
DAV:   1    -0.133076721908E+04   -0.65161E-03   -0.49436E-01  4992   0.520E-01    0.139E-01
DAV:   2    -0.133076720358E+04    0.15497E-04   -0.31427E-03  5248   0.400E-02    0.898E-02
DAV:   3    -0.133076708449E+04    0.11910E-03   -0.71815E-04  5408   0.181E-02    0.131E-02
DAV:   4    -0.133076709709E+04   -0.12602E-04   -0.13045E-04  5472   0.437E-03    0.828E-03
DAV:   5    -0.133076709692E+04    0.16949E-06   -0.70746E-06  5728   0.157E-03    0.419E-03
DAV:   6    -0.133076709732E+04   -0.40662E-06   -0.12811E-06  4864   0.867E-04    0.132E-03
DAV:   7    -0.133076709786E+04   -0.53275E-06   -0.33099E-07  5120   0.376E-04    0.502E-04
DAV:   8    -0.133076709829E+04   -0.43306E-06   -0.33772E-08  3840   0.146E-04    0.312E-04
DAV:   9    -0.133076709897E+04   -0.67786E-06   -0.33918E-08  4176   0.143E-04    0.177E-04
DAV:  10    -0.133076709948E+04   -0.50907E-06   -0.23258E-08  3904   0.129E-04    0.118E-04
DAV:  11    -0.133076709975E+04   -0.27356E-06   -0.68178E-09  3392   0.728E-05    0.900E-05
DAV:  12    -0.133076710003E+04   -0.28199E-06   -0.77050E-09  3424   0.629E-05    0.488E-05
DAV:  13    -0.133076710027E+04   -0.23551E-06   -0.87615E-09  3472   0.613E-05    0.386E-05
DAV:  14    -0.133076710037E+04   -0.99739E-07   -0.24735E-09  3136   0.596E-05    0.242E-05
DAV:  15    -0.133076710043E+04   -0.60696E-07   -0.22506E-09  3200   0.552E-05    0.221E-05
DAV:  16    -0.133076710046E+04   -0.28507E-07   -0.85453E-10  3136   0.426E-05    0.126E-05
DAV:  17    -0.133076710047E+04   -0.13068E-07   -0.13141E-10  3072   0.314E-05    0.147E-05
DAV:  18    -0.133076710048E+04   -0.49185E-08    0.28274E-10  3008   0.214E-05
  37 F= -.13497578E+04 E0= -.13497578E+04  d E =-.313043E-03  mag=    -0.0000
       N       E                     dE             d eps       ncg     rms          rms(c)
DAV:   1    -0.133076678269E+04    0.31778E-03   -0.49272E-01  4992   0.535E-01    0.135E-01
DAV:   2    -0.133076694065E+04   -0.15796E-03   -0.44319E-03  5376   0.443E-02    0.940E-02
DAV:   3    -0.133076680010E+04    0.14055E-03   -0.56909E-04  5776   0.182E-02    0.249E-02
DAV:   4    -0.133076681429E+04   -0.14192E-04   -0.18029E-04  5920   0.585E-03    0.979E-03
DAV:   5    -0.133076681357E+04    0.72111E-06   -0.10208E-05  5568   0.241E-03    0.546E-03
DAV:   6    -0.133076681443E+04   -0.86475E-06   -0.13983E-06  5968   0.100E-03    0.197E-03
DAV:   7    -0.133076681563E+04   -0.11957E-05   -0.35184E-07  4800   0.623E-04    0.702E-04
DAV:   8    -0.133076681708E+04   -0.14495E-05   -0.17740E-07  4960   0.377E-04    0.451E-04
DAV:   9    -0.133076681831E+04   -0.12286E-05   -0.49846E-08  3936   0.216E-04    0.291E-04
DAV:  10    -0.133076681995E+04   -0.16381E-05   -0.87006E-08  4240   0.228E-04    0.172E-04
DAV:  11    -0.133076682079E+04   -0.84653E-06   -0.39871E-08  4000   0.170E-04    0.124E-04
DAV:  12    -0.133076682145E+04   -0.66144E-06   -0.21746E-08  3552   0.103E-04    0.832E-05
DAV:  13    -0.133076682189E+04   -0.43651E-06   -0.13707E-08  3424   0.742E-05    0.492E-05
DAV:  14    -0.133076682210E+04   -0.21447E-06   -0.52833E-09  3072   0.580E-05    0.320E-05
DAV:  15    -0.133076682224E+04   -0.13260E-06   -0.31013E-09  3072   0.490E-05    0.277E-05
DAV:  16    -0.133076682233E+04   -0.96712E-07   -0.23603E-09  3104   0.470E-05    0.163E-05
DAV:  17    -0.133076682237E+04   -0.31010E-07   -0.54204E-10  3072   0.403E-05    0.112E-05
DAV:  18    -0.133076682238E+04   -0.13810E-07    0.10396E-10  3072   0.289E-05    0.935E-06
DAV:  19    -0.133076682239E+04   -0.73487E-08    0.40783E-10  3072   0.195E-05
  38 F= -.13497577E+04 E0= -.13497577E+04  d E =0.587077E-04  mag=    -0.0000
       N       E                     dE             d eps       ncg     rms          rms(c)
DAV:   1    -0.133076736573E+04   -0.54335E-03   -0.49217E-01  4992   0.530E-01    0.140E-01
DAV:   2    -0.133076738770E+04   -0.21973E-04   -0.34360E-03  5312   0.408E-02    0.890E-02
DAV:   3    -0.133076727391E+04    0.11379E-03   -0.75163E-04  5440   0.189E-02    0.152E-02
DAV:   4    -0.133076728297E+04   -0.90550E-05   -0.13368E-04  5632   0.502E-03    0.111E-02
DAV:   5    -0.133076728257E+04    0.40382E-06   -0.10263E-05  5792   0.177E-03    0.578E-03
DAV:   6    -0.133076728339E+04   -0.82351E-06   -0.13131E-06  4992   0.100E-03    0.240E-03
DAV:   7    -0.133076728452E+04   -0.11322E-05   -0.59721E-07  5216   0.594E-04    0.613E-04
DAV:   8    -0.133076728563E+04   -0.11134E-05   -0.13062E-07  4624   0.305E-04    0.442E-04
DAV:   9    -0.133076728663E+04   -0.99717E-06   -0.33402E-08  4032   0.179E-04    0.276E-04
DAV:  10    -0.133076728824E+04   -0.16035E-05   -0.96196E-08  4160   0.249E-04    0.169E-04
DAV:  11    -0.133076728882E+04   -0.58889E-06   -0.24306E-08  3936   0.127E-04    0.126E-04
DAV:  12    -0.133076728930E+04   -0.47237E-06   -0.10931E-08  3328   0.782E-05    0.832E-05
DAV:  13    -0.133076728971E+04   -0.41717E-06   -0.12632E-08  3552   0.680E-05    0.521E-05
DAV:  14    -0.133076728995E+04   -0.23871E-06   -0.60841E-09  3232   0.558E-05    0.310E-05
DAV:  15    -0.133076729009E+04   -0.13977E-06   -0.37316E-09  3168   0.484E-05    0.228E-05
DAV:  16    -0.133076729017E+04   -0.81229E-07   -0.18817E-09  3072   0.501E-05    0.142E-05
DAV:  17    -0.133076729021E+04   -0.40614E-07   -0.10672E-09  3072   0.480E-05    0.115E-05
DAV:  18    -0.133076729023E+04   -0.11802E-07    0.78021E-11  3072   0.298E-05    0.842E-06
DAV:  19    -0.133076729024E+04   -0.10390E-07    0.33531E-10  3072   0.217E-05    0.719E-06
DAV:  20    -0.133076729024E+04   -0.37253E-08    0.61801E-10  3072   0.152E-05
  39 F= -.13497582E+04 E0= -.13497582E+04  d E =-.528694E-03  mag=     0.0000
       N       E                     dE             d eps       ncg     rms          rms(c)
DAV:   1    -0.133076717488E+04    0.11535E-03   -0.49107E-01  4992   0.534E-01    0.141E-01
DAV:   2    -0.133076718548E+04   -0.10594E-04   -0.34812E-03  5312   0.422E-02    0.873E-02
DAV:   3    -0.133076707936E+04    0.10612E-03   -0.75592E-04  5600   0.188E-02    0.229E-02
DAV:   4    -0.133076708746E+04   -0.81050E-05   -0.13589E-04  5888   0.566E-03    0.103E-02
DAV:   5    -0.133076708763E+04   -0.16972E-06   -0.12664E-05  6048   0.244E-03    0.464E-03
DAV:   6    -0.133076708805E+04   -0.42122E-06   -0.14965E-06  5664   0.131E-03    0.208E-03
DAV:   7    -0.133076708838E+04   -0.32596E-06   -0.39668E-07  5312   0.558E-04    0.607E-04
DAV:   8    -0.133076708864E+04   -0.25640E-06   -0.86422E-08  5056   0.289E-04    0.330E-04
DAV:   9    -0.133076708886E+04   -0.21821E-06   -0.10615E-08  3520   0.140E-04    0.202E-04
DAV:  10    -0.133076708911E+04   -0.25847E-06   -0.16848E-08  3776   0.140E-04    0.106E-04
DAV:  11    -0.133076708923E+04   -0.11222E-06   -0.37330E-09  3264   0.781E-05    0.623E-05
DAV:  12    -0.133076708935E+04   -0.11976E-06   -0.36272E-09  3168   0.588E-05    0.501E-05
DAV:  13    -0.133076708943E+04   -0.79279E-07   -0.16284E-09  3072   0.434E-05    0.363E-05
DAV:  14    -0.133076708949E+04   -0.63650E-07   -0.17541E-09  3104   0.459E-05    0.315E-05
DAV:  15    -0.133076708953E+04   -0.41022E-07   -0.76333E-10  3072   0.352E-05    0.314E-05
DAV:  16    -0.133076708955E+04   -0.20562E-07   -0.26426E-10  3072   0.339E-05    0.136E-05
DAV:  17    -0.133076708956E+04   -0.11772E-07    0.61507E-12  3072   0.314E-05    0.205E-05
DAV:  18    -0.133076708957E+04   -0.47148E-08    0.41385E-10  3008   0.221E-05
  40 F= -.13497578E+04 E0= -.13497578E+04  d E =0.494477E-03  mag=     0.0000
       N       E                     dE             d eps       ncg     rms          rms(c)
DAV:   1    -0.133076719756E+04   -0.10800E-03   -0.48357E-01  5056   0.516E-01    0.133E-01
DAV:   2    -0.133076747121E+04   -0.27365E-03   -0.57844E-03  5440   0.453E-02    0.903E-02
DAV:   3    -0.133076734300E+04    0.12821E-03   -0.63577E-04  5536   0.187E-02    0.314E-02
DAV:   4    -0.133076735426E+04   -0.11263E-04   -0.17290E-04  6144   0.758E-03    0.117E-02
DAV:   5    -0.133076735339E+04    0.87231E-06   -0.17227E-05  6240   0.301E-03    0.536E-03
DAV:   6    -0.133076735375E+04   -0.35812E-06   -0.21958E-06  5984   0.116E-03    0.213E-03
DAV:   7    -0.133076735423E+04   -0.48062E-06   -0.38875E-07  5264   0.640E-04    0.950E-04
DAV:   8    -0.133076735473E+04   -0.49938E-06   -0.17155E-07  5200   0.421E-04    0.416E-04
DAV:   9    -0.133076735510E+04   -0.36655E-06   -0.30996E-08  3872   0.184E-04    0.278E-04
DAV:  10    -0.133076735569E+04   -0.58982E-06   -0.32695E-08  3968   0.191E-04    0.163E-04
DAV:  11    -0.133076735610E+04   -0.41345E-06   -0.24662E-08  3776   0.166E-04    0.965E-05
DAV:  12    -0.133076735640E+04   -0.30478E-06   -0.12729E-08  3520   0.121E-04    0.711E-05
DAV:  13    -0.133076735661E+04   -0.20693E-06   -0.65071E-09  3232   0.828E-05    0.508E-05
DAV:  14    -0.133076735676E+04   -0.15109E-06   -0.49840E-09  3168   0.729E-05    0.290E-05
DAV:  15    -0.133076735684E+04   -0.75466E-07   -0.24684E-09  3072   0.596E-05    0.227E-05
DAV:  16    -0.133076735689E+04   -0.49229E-07   -0.14903E-09  3072   0.464E-05    0.133E-05
DAV:  17    -0.133076735691E+04   -0.24127E-07   -0.79588E-10  3072   0.422E-05    0.131E-05
DAV:  18    -0.133076735692E+04   -0.51077E-08   -0.39638E-11  3072   0.277E-05
  41 F= -.13497583E+04 E0= -.13497583E+04  d E =-.590446E-03  mag=    -0.0000
       N       E                     dE             d eps       ncg     rms          rms(c)
DAV:   1    -0.133076754575E+04   -0.18883E-03   -0.48863E-01  5088   0.439E-01    0.145E-01
DAV:   2    -0.133076763500E+04   -0.89256E-04   -0.53114E-03  5504   0.394E-02    0.857E-02
DAV:   3    -0.133076750919E+04    0.12581E-03   -0.83178E-04  5536   0.208E-02    0.286E-02
DAV:   4    -0.133076751596E+04   -0.67680E-05   -0.16173E-04  5888   0.781E-03    0.118E-02
DAV:   5    -0.133076751418E+04    0.17852E-05   -0.15238E-05  6080   0.331E-03    0.529E-03
DAV:   6    -0.133076751467E+04   -0.49223E-06   -0.16585E-06  6368   0.135E-03    0.216E-03
DAV:   7    -0.133076751577E+04   -0.10991E-05   -0.42881E-07  5760   0.777E-04    0.106E-03
DAV:   8    -0.133076751699E+04   -0.12244E-05   -0.19709E-07  5600   0.483E-04    0.526E-04
DAV:   9    -0.133076751812E+04   -0.11239E-05   -0.48763E-08  4256   0.211E-04    0.360E-04
DAV:  10    -0.133076752005E+04   -0.19338E-05   -0.14046E-07  4560   0.295E-04    0.215E-04
DAV:  11    -0.133076752104E+04   -0.98531E-06   -0.69107E-08  4288   0.197E-04    0.155E-04
DAV:  12    -0.133076752187E+04   -0.83155E-06   -0.39733E-08  4000   0.138E-04    0.111E-04
DAV:  13    -0.133076752243E+04   -0.56751E-06   -0.27201E-08  3840   0.102E-04    0.701E-05
DAV:  14    -0.133076752266E+04   -0.22921E-06   -0.56942E-09  3136   0.608E-05    0.461E-05
DAV:  15    -0.133076752282E+04   -0.15242E-06   -0.30262E-09  3072   0.462E-05    0.322E-05
DAV:  16    -0.133076752296E+04   -0.14875E-06   -0.34514E-09  3072   0.482E-05    0.285E-05
DAV:  17    -0.133076752302E+04   -0.52911E-07   -0.76614E-10  3072   0.370E-05    0.195E-05
DAV:  18    -0.133076752305E+04   -0.29657E-07   -0.97912E-11  3072   0.295E-05    0.142E-05
DAV:  19    -0.133076752306E+04   -0.16764E-07    0.31226E-10  3072   0.227E-05    0.155E-05
DAV:  20    -0.133076752307E+04   -0.61700E-08    0.61380E-10  2944   0.169E-05
  42 F= -.13497583E+04 E0= -.13497583E+04  d E =0.154305E-04  mag=    -0.0000
       N       E                     dE             d eps       ncg     rms          rms(c)
DAV:   1    -0.133076776146E+04   -0.23840E-03   -0.49170E-01  5056   0.444E-01    0.149E-01
DAV:   2    -0.133076785464E+04   -0.93177E-04   -0.56779E-03  5376   0.403E-02    0.924E-02
DAV:   3    -0.133076768853E+04    0.16611E-03   -0.95852E-04  5568   0.212E-02    0.257E-02
DAV:   4    -0.133076770657E+04   -0.18042E-04   -0.20639E-04  5824   0.721E-03    0.134E-02
DAV:   5    -0.133076770540E+04    0.11709E-05   -0.17595E-05  5728   0.339E-03    0.552E-03
DAV:   6    -0.133076770592E+04   -0.51961E-06   -0.18936E-06  5952   0.122E-03    0.213E-03
DAV:   7    -0.133076770646E+04   -0.54047E-06   -0.52275E-07  5632   0.863E-04    0.813E-04
DAV:   8    -0.133076770682E+04   -0.36185E-06   -0.17520E-07  5248   0.431E-04    0.490E-04
DAV:   9    -0.133076770722E+04   -0.40342E-06   -0.30686E-08  4176   0.212E-04    0.286E-04
DAV:  10    -0.133076770773E+04   -0.50763E-06   -0.26721E-08  4096   0.240E-04    0.167E-04
DAV:  11    -0.133076770817E+04   -0.43845E-06   -0.28084E-08  4080   0.229E-04    0.113E-04
DAV:  12    -0.133076770844E+04   -0.27260E-06   -0.12473E-08  3744   0.135E-04    0.752E-05
DAV:  13    -0.133076770865E+04   -0.20926E-06   -0.72332E-09  3328   0.958E-05    0.471E-05
DAV:  14    -0.133076770879E+04   -0.14171E-06   -0.66175E-09  3328   0.906E-05    0.321E-05
DAV:  15    -0.133076770886E+04   -0.62384E-07   -0.31838E-09  3200   0.745E-05    0.224E-05
DAV:  16    -0.133076770891E+04   -0.51063E-07   -0.16998E-09  3136   0.487E-05    0.160E-05
DAV:  17    -0.133076770894E+04   -0.29468E-07   -0.87091E-10  3136   0.444E-05    0.110E-05
DAV:  18    -0.133076770895E+04   -0.15658E-07   -0.14997E-10  3136   0.335E-05    0.962E-06
DAV:  19    -0.133076770896E+04   -0.64465E-08    0.39445E-10  3072   0.207E-05
  43 F= -.13497583E+04 E0= -.13497583E+04  d E =0.108770E-04  mag=     0.0000
