       N       E                     dE             d eps       ncg     rms          rms(c)
DAV:   1    -0.137778751237E+04   -0.13778E+04   -0.13250E+00  6304   0.977E-01    0.944E-01
DAV:   2    -0.137951966103E+04   -0.17321E+01   -0.11805E+00  6240   0.950E-01    0.409E-01
DAV:   3    -0.137952929131E+04   -0.96303E-02   -0.42620E-02  6848   0.228E-01    0.275E-01
DAV:   4    -0.137952934271E+04   -0.51402E-04   -0.21211E-03  5632   0.570E-02    0.222E-01
DAV:   5    -0.137952935114E+04   -0.84265E-05   -0.19170E-04  6720   0.179E-02    0.187E-01
DAV:   6    -0.137952936423E+04   -0.13088E-04   -0.22554E-05  7184   0.707E-03    0.161E-01
DAV:   7    -0.137952937188E+04   -0.76481E-05   -0.23075E-05  6848   0.822E-03    0.128E-01
DAV:   8    -0.137952937786E+04   -0.59828E-05   -0.19227E-05  6976   0.699E-03    0.103E-01
DAV:   9    -0.137952938252E+04   -0.46620E-05   -0.56960E-06  7232   0.358E-03    0.873E-02
DAV:  10    -0.137952938844E+04   -0.59155E-05   -0.15534E-05  6528   0.679E-03    0.558E-02
DAV:  11    -0.137952939290E+04   -0.44682E-05   -0.35646E-05  6688   0.982E-03    0.155E-02
DAV:  12    -0.137952939418E+04   -0.12750E-05   -0.53520E-06  7056   0.303E-03    0.807E-03
DAV:  13    -0.137952939444E+04   -0.26512E-06   -0.62568E-07  6752   0.127E-03    0.304E-03
DAV:  14    -0.137952939453E+04   -0.83717E-07   -0.25818E-07  6848   0.681E-04    0.154E-03
DAV:  15    -0.137952939457E+04   -0.41167E-07   -0.22864E-08  3200   0.307E-04    0.504E-04
DAV:  16    -0.137952939463E+04   -0.62631E-07   -0.37795E-08  4224   0.245E-04    0.779E-04
DAV:  17    -0.137952939466E+04   -0.23821E-07   -0.44392E-09  3104   0.117E-04    0.686E-04
DAV:  18    -0.137952939470E+04   -0.47672E-07   -0.67953E-09  3072   0.127E-04    0.477E-04
DAV:  19    -0.137952939472E+04   -0.16909E-07   -0.47744E-09  3072   0.117E-04    0.293E-04
DAV:  20    -0.137952939474E+04   -0.17870E-07   -0.10815E-08  3072   0.148E-04    0.126E-04
DAV:  21    -0.137952939476E+04   -0.16749E-07   -0.50983E-09  3072   0.979E-05    0.102E-04
DAV:  22    -0.137952939477E+04   -0.10928E-07   -0.25406E-09  3072   0.575E-05    0.139E-04
DAV:  23    -0.137952939478E+04   -0.12456E-07   -0.38988E-10  2944   0.464E-05    0.117E-04
DAV:  24    -0.137952939478E+04   -0.55588E-08    0.25404E-11  2944   0.427E-05
   1 F= -.13990210E+04 E0= -.13990210E+04  d E =-.139902E+04  mag=     0.0000
       N       E                     dE             d eps       ncg     rms          rms(c)
DAV:   1    -0.137952856880E+04    0.82598E-03   -0.58114E-01  5120   0.889E-01    0.132E-01
DAV:   2    -0.137952887336E+04   -0.30456E-03   -0.50573E-03  5536   0.838E-02    0.965E-02
DAV:   3    -0.137952880344E+04    0.69916E-04   -0.61098E-04  6144   0.447E-02    0.362E-02
DAV:   4    -0.137952881111E+04   -0.76636E-05   -0.12568E-04  6016   0.161E-02    0.169E-02
DAV:   5    -0.137952880741E+04    0.36962E-05   -0.37608E-05  5664   0.958E-03    0.719E-03
DAV:   6    -0.137952880677E+04    0.63577E-06   -0.49565E-06  6112   0.342E-03    0.385E-03
DAV:   7    -0.137952880677E+04    0.31869E-08   -0.27310E-06  6224   0.240E-03    0.191E-03
DAV:   8    -0.137952880680E+04   -0.24957E-07   -0.39825E-07  5888   0.106E-03    0.117E-03
DAV:   9    -0.137952880692E+04   -0.12555E-06   -0.21217E-07  5088   0.700E-04    0.577E-04
DAV:  10    -0.137952880705E+04   -0.12558E-06   -0.74014E-08  5344   0.488E-04    0.551E-04
DAV:  11    -0.137952880718E+04   -0.13685E-06   -0.52683E-08  4832   0.370E-04    0.233E-04
DAV:  12    -0.137952880734E+04   -0.15355E-06   -0.16135E-08  3808   0.225E-04    0.135E-04
DAV:  13    -0.137952880747E+04   -0.13158E-06   -0.96938E-09  3392   0.141E-04    0.152E-04
DAV:  14    -0.137952880758E+04   -0.11075E-06   -0.55971E-09  3152   0.105E-04    0.854E-05
DAV:  15    -0.137952880767E+04   -0.87966E-07   -0.55107E-09  3088   0.821E-05    0.559E-05
DAV:  16    -0.137952880771E+04   -0.40600E-07   -0.19288E-09  3072   0.512E-05    0.453E-05
DAV:  17    -0.137952880775E+04   -0.43074E-07   -0.21148E-09  3072   0.468E-05    0.224E-05
DAV:  18    -0.137952880777E+04   -0.20460E-07   -0.55484E-10  3072   0.346E-05    0.222E-05
DAV:  19    -0.137952880779E+04   -0.16618E-07   -0.20781E-10  3040   0.282E-05    0.158E-05
DAV:  20    -0.137952880780E+04   -0.15702E-07    0.19791E-10  3008   0.229E-05    0.959E-06
DAV:  21    -0.137952880781E+04   -0.47730E-08    0.37281E-10  2976   0.194E-05
   2 F= -.13990205E+04 E0= -.13990205E+04  d E =0.521113E-03  mag=    -0.0000
       N       E                     dE             d eps       ncg     rms          rms(c)
DAV:   1    -0.137952814769E+04    0.66011E-03   -0.11605E+00  5120   0.125E+00    0.143E-01
DAV:   2    -0.137952897212E+04   -0.82443E-03   -0.10797E-02  5536   0.112E-01    0.952E-02
DAV:   3    -0.137952887825E+04    0.93872E-04   -0.89518E-04  6432   0.406E-02    0.489E-02
DAV:   4    -0.137952886692E+04    0.11333E-04   -0.22339E-04  5536   0.230E-02    0.173E-02
DAV:   5    -0.137952886391E+04    0.30117E-05   -0.59909E-05  5440   0.118E-02    0.988E-03
DAV:   6    -0.137952886420E+04   -0.29970E-06   -0.11966E-05  6144   0.392E-03    0.583E-03
DAV:   7    -0.137952886387E+04    0.33609E-06   -0.27819E-06  6496   0.252E-03    0.313E-03
DAV:   8    -0.137952886401E+04   -0.13830E-06   -0.93968E-07  6208   0.155E-03    0.182E-03
DAV:   9    -0.137952886410E+04   -0.94180E-07   -0.30217E-07  6304   0.856E-04    0.746E-04
DAV:  10    -0.137952886427E+04   -0.17276E-06   -0.72128E-08  4800   0.404E-04    0.345E-04
DAV:  11    -0.137952886447E+04   -0.19433E-06   -0.23494E-08  4192   0.300E-04    0.256E-04
DAV:  12    -0.137952886465E+04   -0.18296E-06   -0.27122E-08  4336   0.278E-04    0.135E-04
DAV:  13    -0.137952886478E+04   -0.12755E-06   -0.74633E-09  3200   0.142E-04    0.102E-04
DAV:  14    -0.137952886488E+04   -0.10365E-06   -0.47072E-09  3104   0.935E-05    0.603E-05
DAV:  15    -0.137952886494E+04   -0.61831E-07   -0.39253E-09  3072   0.780E-05    0.426E-05
DAV:  16    -0.137952886499E+04   -0.49651E-07   -0.31502E-09  3072   0.590E-05    0.408E-05
DAV:  17    -0.137952886501E+04   -0.14727E-07   -0.78205E-10  2944   0.405E-05    0.286E-05
DAV:  18    -0.137952886503E+04   -0.17244E-07   -0.83766E-10  3072   0.425E-05    0.309E-05
DAV:  19    -0.137952886504E+04   -0.11903E-07    0.32891E-11  2944   0.287E-05    0.228E-05
DAV:  20    -0.137952886504E+04   -0.43365E-08    0.10185E-10  3024   0.245E-05
   3 F= -.13990206E+04 E0= -.13990206E+04  d E =-.147831E-03  mag=    -0.0000
       N       E                     dE             d eps       ncg     rms          rms(c)
DAV:   1    -0.137952864527E+04    0.21977E-03   -0.11528E+00  5120   0.125E+00    0.127E-01
DAV:   2    -0.137952917126E+04   -0.52599E-03   -0.93794E-03  5568   0.114E-01    0.890E-02
DAV:   3    -0.137952904293E+04    0.12834E-03   -0.96428E-04  6368   0.452E-02    0.429E-02
DAV:   4    -0.137952903542E+04    0.75027E-05   -0.18302E-04  5792   0.196E-02    0.180E-02
DAV:   5    -0.137952903294E+04    0.24805E-05   -0.44080E-05  5472   0.109E-02    0.819E-03
DAV:   6    -0.137952903289E+04    0.52052E-07   -0.59473E-06  5632   0.342E-03    0.431E-03
DAV:   7    -0.137952903340E+04   -0.50559E-06   -0.35903E-06  6112   0.294E-03    0.269E-03
DAV:   8    -0.137952903370E+04   -0.30588E-06   -0.77893E-07  6208   0.134E-03    0.139E-03
DAV:   9    -0.137952903441E+04   -0.71322E-06   -0.35514E-07  5888   0.944E-04    0.737E-04
DAV:  10    -0.137952903505E+04   -0.63302E-06   -0.10428E-07  5536   0.577E-04    0.575E-04
DAV:  11    -0.137952903555E+04   -0.50032E-06   -0.50186E-08  4960   0.385E-04    0.246E-04
DAV:  12    -0.137952903617E+04   -0.62677E-06   -0.32088E-08  4096   0.305E-04    0.166E-04
DAV:  13    -0.137952903653E+04   -0.35533E-06   -0.20782E-08  4096   0.186E-04    0.134E-04
DAV:  14    -0.137952903678E+04   -0.25099E-06   -0.75280E-09  3200   0.102E-04    0.773E-05
DAV:  15    -0.137952903699E+04   -0.20825E-06   -0.10069E-08  3584   0.811E-05    0.582E-05
DAV:  16    -0.137952903707E+04   -0.76310E-07   -0.16588E-09  3072   0.573E-05    0.370E-05
DAV:  17    -0.137952903715E+04   -0.85070E-07   -0.37223E-09  3168   0.577E-05    0.494E-05
DAV:  18    -0.137952903718E+04   -0.25393E-07   -0.50134E-10  3072   0.442E-05    0.341E-05
DAV:  19    -0.137952903720E+04   -0.20766E-07   -0.83722E-10  3072   0.475E-05    0.352E-05
DAV:  20    -0.137952903721E+04   -0.11423E-07   -0.13789E-11  3072   0.341E-05    0.284E-05
DAV:  21    -0.137952903721E+04   -0.37689E-08    0.22763E-10  3072   0.262E-05
   4 F= -.13990209E+04 E0= -.13990209E+04  d E =-.273906E-03  mag=    -0.0000
       N       E                     dE             d eps       ncg     rms          rms(c)
DAV:   1    -0.137952797495E+04    0.10623E-02   -0.11557E+00  5120   0.128E+00    0.172E-01
DAV:   2    -0.137952904761E+04   -0.10727E-02   -0.13891E-02  5504   0.134E-01    0.118E-01
DAV:   3    -0.137952888790E+04    0.15971E-03   -0.10423E-03  6432   0.478E-02    0.683E-02
DAV:   4    -0.137952885565E+04    0.32245E-04   -0.46162E-04  5920   0.370E-02    0.223E-02
DAV:   5    -0.137952885060E+04    0.50571E-05   -0.12024E-04  5760   0.169E-02    0.149E-02
DAV:   6    -0.137952884917E+04    0.14318E-05   -0.37007E-05  6048   0.771E-03    0.917E-03
DAV:   7    -0.137952884771E+04    0.14541E-05   -0.79820E-06  6816   0.466E-03    0.418E-03
DAV:   8    -0.137952884755E+04    0.15933E-06   -0.35364E-06  5696   0.307E-03    0.320E-03
DAV:   9    -0.137952884740E+04    0.15341E-06   -0.10219E-06  6528   0.194E-03    0.158E-03
DAV:  10    -0.137952884806E+04   -0.65865E-06   -0.85500E-07  5664   0.159E-03    0.126E-03
DAV:  11    -0.137952884878E+04   -0.72410E-06   -0.24532E-07  5888   0.113E-03    0.105E-03
DAV:  12    -0.137952884965E+04   -0.86841E-06   -0.25424E-07  5152   0.847E-04    0.353E-04
DAV:  13    -0.137952885037E+04   -0.71568E-06   -0.64024E-08  5120   0.385E-04    0.268E-04
DAV:  14    -0.137952885093E+04   -0.56124E-06   -0.20068E-08  3904   0.202E-04    0.203E-04
DAV:  15    -0.137952885160E+04   -0.67688E-06   -0.28623E-08  4032   0.146E-04    0.125E-04
DAV:  16    -0.137952885198E+04   -0.37890E-06   -0.11377E-08  3488   0.106E-04    0.581E-05
DAV:  17    -0.137952885221E+04   -0.23021E-06   -0.73236E-09  3232   0.803E-05    0.541E-05
DAV:  18    -0.137952885233E+04   -0.11887E-06   -0.38601E-09  3072   0.659E-05    0.589E-05
DAV:  19    -0.137952885239E+04   -0.61817E-07   -0.32921E-09  3072   0.645E-05    0.330E-05
DAV:  20    -0.137952885241E+04   -0.16618E-07   -0.11974E-09  3136   0.547E-05    0.181E-05
DAV:  21    -0.137952885242E+04   -0.60245E-08   -0.89774E-11  3008   0.304E-05
   5 F= -.13990203E+04 E0= -.13990203E+04  d E =0.640419E-03  mag=     0.0000
       N       E                     dE             d eps       ncg     rms          rms(c)
DAV:   1    -0.137952850969E+04    0.34272E-03   -0.11627E+00  5120   0.116E+00    0.996E-02
DAV:   2    -0.137952904157E+04   -0.53187E-03   -0.82609E-03  5472   0.957E-02    0.610E-02
DAV:   3    -0.137952894543E+04    0.96141E-04   -0.71107E-04  6176   0.325E-02    0.249E-02
DAV:   4    -0.137952893849E+04    0.69375E-05   -0.11210E-04  5920   0.128E-02    0.140E-02
DAV:   5    -0.137952893664E+04    0.18480E-05   -0.10866E-05  6016   0.463E-03    0.648E-03
DAV:   6    -0.137952893575E+04    0.89328E-06   -0.22074E-06  5632   0.248E-03    0.216E-03
DAV:   7    -0.137952893597E+04   -0.22132E-06   -0.11326E-06  6688   0.153E-03    0.141E-03
DAV:   8    -0.137952893625E+04   -0.28183E-06   -0.26764E-07  5504   0.793E-04    0.865E-04
DAV:   9    -0.137952893690E+04   -0.65424E-06   -0.12932E-07  5664   0.655E-04    0.498E-04
DAV:  10    -0.137952893748E+04   -0.57599E-06   -0.90000E-08  4992   0.504E-04    0.286E-04
DAV:  11    -0.137952893805E+04   -0.57089E-06   -0.56234E-08  4480   0.358E-04    0.216E-04
DAV:  12    -0.137952893859E+04   -0.54151E-06   -0.26243E-08  3920   0.233E-04    0.148E-04
DAV:  13    -0.137952893893E+04   -0.33961E-06   -0.17579E-08  3920   0.158E-04    0.819E-05
DAV:  14    -0.137952893916E+04   -0.22503E-06   -0.60809E-09  3232   0.944E-05    0.558E-05
DAV:  15    -0.137952893934E+04   -0.18468E-06   -0.64507E-09  3264   0.766E-05    0.439E-05
DAV:  16    -0.137952893942E+04   -0.81855E-07   -0.23734E-09  3104   0.713E-05    0.280E-05
DAV:  17    -0.137952893952E+04   -0.10047E-06   -0.37421E-09  3072   0.716E-05    0.354E-05
DAV:  18    -0.137952893955E+04   -0.29235E-07   -0.10867E-09  3072   0.515E-05    0.277E-05
DAV:  19    -0.137952893957E+04   -0.14727E-07   -0.20103E-10  3072   0.360E-05    0.152E-05
DAV:  20    -0.137952893959E+04   -0.17622E-07   -0.58398E-12  3072   0.301E-05    0.145E-05
DAV:  21    -0.137952893959E+04   -0.51077E-08    0.38553E-10  3072   0.186E-05
   6 F= -.13990205E+04 E0= -.13990205E+04  d E =-.229879E-03  mag=    -0.0000
       N       E                     dE             d eps       ncg     rms          rms(c)
DAV:   1    -0.137952802050E+04    0.91908E-03   -0.11656E+00  5120   0.115E+00    0.151E-01
DAV:   2    -0.137952877320E+04   -0.75270E-03   -0.11258E-02  5504   0.112E-01    0.104E-01
DAV:   3    -0.137952863921E+04    0.13399E-03   -0.11629E-03  6432   0.520E-02    0.438E-02
DAV:   4    -0.137952863876E+04    0.45053E-06   -0.24233E-04  6240   0.217E-02    0.219E-02
DAV:   5    -0.137952863196E+04    0.68029E-05   -0.39887E-05  6496   0.960E-03    0.100E-02
DAV:   6    -0.137952862941E+04    0.25543E-05   -0.60822E-06  6080   0.395E-03    0.445E-03
DAV:   7    -0.137952862935E+04    0.53507E-07   -0.29318E-06  6848   0.268E-03    0.210E-03
DAV:   8    -0.137952862999E+04   -0.63982E-06   -0.67236E-07  6800   0.173E-03    0.135E-03
DAV:   9    -0.137952863159E+04   -0.15978E-05   -0.42792E-07  6592   0.183E-03    0.772E-04
DAV:  10    -0.137952863331E+04   -0.17229E-05   -0.44682E-07  5696   0.123E-03    0.693E-04
DAV:  11    -0.137952863533E+04   -0.20174E-05   -0.27458E-07  5344   0.814E-04    0.443E-04
DAV:  12    -0.137952863683E+04   -0.14987E-05   -0.85902E-08  5104   0.459E-04    0.308E-04
DAV:  13    -0.137952863782E+04   -0.99059E-06   -0.42830E-08  4384   0.228E-04    0.228E-04
DAV:  14    -0.137952863877E+04   -0.94518E-06   -0.35844E-08  4352   0.190E-04    0.132E-04
DAV:  15    -0.137952863926E+04   -0.49239E-06   -0.12098E-08  3664   0.957E-05    0.116E-04
DAV:  16    -0.137952863958E+04   -0.31777E-06   -0.74958E-09  3200   0.869E-05    0.558E-05
DAV:  17    -0.137952863982E+04   -0.24644E-06   -0.87197E-09  3472   0.802E-05    0.502E-05
DAV:  18    -0.137952863992E+04   -0.97803E-07   -0.24372E-09  3136   0.615E-05    0.309E-05
DAV:  19    -0.137952863998E+04   -0.60041E-07   -0.15303E-09  3072   0.540E-05    0.207E-05
DAV:  20    -0.137952864001E+04   -0.33382E-07   -0.50741E-10  3072   0.382E-05    0.206E-05
DAV:  21    -0.137952864003E+04   -0.12617E-07    0.26649E-10  3072   0.260E-05    0.137E-05
DAV:  22    -0.137952864003E+04   -0.74069E-08    0.44515E-10  2976   0.199E-05
   7 F= -.13990207E+04 E0= -.13990207E+04  d E =-.242204E-03  mag=     0.0000
       N       E                     dE             d eps       ncg     rms          rms(c)
DAV:   1    -0.137952794986E+04    0.69017E-03   -0.11592E+00  5120   0.117E+00    0.179E-01
DAV:   2    -0.137952911886E+04   -0.11690E-02   -0.14566E-02  5504   0.122E-01    0.134E-01
DAV:   3    -0.137952894708E+04    0.17178E-03   -0.13193E-03  6784   0.536E-02    0.749E-02
DAV:   4    -0.137952891991E+04    0.27167E-04   -0.45747E-04  5792   0.381E-02    0.226E-02
DAV:   5    -0.137952891218E+04    0.77317E-05   -0.15521E-04  5472   0.200E-02    0.141E-02
DAV:   6    -0.137952890955E+04    0.26312E-05   -0.31173E-05  5984   0.685E-03    0.716E-03
DAV:   7    -0.137952890889E+04    0.65684E-06   -0.54060E-06  6976   0.377E-03    0.390E-03
DAV:   8    -0.137952890912E+04   -0.23171E-06   -0.18918E-06  6176   0.279E-03    0.252E-03
DAV:   9    -0.137952890968E+04   -0.55823E-06   -0.10626E-06  6656   0.217E-03    0.121E-03
DAV:  10    -0.137952891140E+04   -0.17200E-05   -0.59198E-07  6176   0.151E-03    0.108E-03
DAV:  11    -0.137952891394E+04   -0.25363E-05   -0.41021E-07  5760   0.154E-03    0.666E-04
DAV:  12    -0.137952891594E+04   -0.20033E-05   -0.37948E-07  5216   0.833E-04    0.388E-04
DAV:  13    -0.137952891709E+04   -0.11496E-05   -0.61122E-08  5248   0.278E-04    0.283E-04
DAV:  14    -0.137952891813E+04   -0.10365E-05   -0.24704E-08  4032   0.144E-04    0.167E-04
DAV:  15    -0.137952891924E+04   -0.11146E-05   -0.36921E-08  4160   0.136E-04    0.107E-04
DAV:  16    -0.137952891994E+04   -0.69532E-06   -0.19149E-08  3808   0.989E-05    0.679E-05
DAV:  17    -0.137952892027E+04   -0.33087E-06   -0.62995E-09  3200   0.689E-05    0.504E-05
DAV:  18    -0.137952892049E+04   -0.21646E-06   -0.59911E-09  3104   0.641E-05    0.376E-05
DAV:  19    -0.137952892057E+04   -0.79672E-07   -0.29458E-09  3072   0.533E-05    0.256E-05
DAV:  20    -0.137952892058E+04   -0.18903E-07   -0.95706E-10  3136   0.377E-05    0.161E-05
DAV:  21    -0.137952892060E+04   -0.13941E-07   -0.22549E-10  3072   0.278E-05    0.145E-05
DAV:  22    -0.137952892061E+04   -0.71450E-08    0.28532E-10  3072   0.201E-05
   8 F= -.13990204E+04 E0= -.13990204E+04  d E =0.296898E-03  mag=    -0.0000
       N       E                     dE             d eps       ncg     rms          rms(c)
DAV:   1    -0.137952773798E+04    0.11826E-02   -0.11708E+00  5120   0.112E+00    0.320E-01
DAV:   2    -0.137952840565E+04   -0.66767E-03   -0.11280E-02  5696   0.120E-01    0.264E-01
DAV:   3    -0.137952827132E+04    0.13434E-03   -0.33018E-03  5952   0.108E-01    0.600E-02
DAV:   4    -0.137952821869E+04    0.52627E-04   -0.88486E-04  5728   0.435E-02    0.373E-02
DAV:   5    -0.137952820177E+04    0.16920E-04   -0.16315E-04  6272   0.203E-02    0.176E-02
DAV:   6    -0.137952819988E+04    0.18891E-05   -0.37756E-05  6176   0.898E-03    0.723E-03
DAV:   7    -0.137952819989E+04   -0.45402E-08   -0.43409E-06  6720   0.291E-03    0.369E-03
DAV:   8    -0.137952820156E+04   -0.16701E-05   -0.13938E-06  6624   0.180E-03    0.188E-03
DAV:   9    -0.137952820323E+04   -0.16739E-05   -0.57322E-07  6304   0.142E-03    0.949E-04
DAV:  10    -0.137952820548E+04   -0.22541E-05   -0.23456E-07  5600   0.808E-04    0.663E-04
DAV:  11    -0.137952820766E+04   -0.21707E-05   -0.18065E-07  4832   0.661E-04    0.393E-04
DAV:  12    -0.137952820970E+04   -0.20428E-05   -0.11961E-07  4544   0.467E-04    0.396E-04
DAV:  13    -0.137952821076E+04   -0.10592E-05   -0.63833E-08  4928   0.280E-04    0.255E-04
DAV:  14    -0.137952821141E+04   -0.65456E-06   -0.22040E-08  4064   0.163E-04    0.215E-04
DAV:  15    -0.137952821194E+04   -0.52359E-06   -0.14590E-08  3968   0.127E-04    0.104E-04
DAV:  16    -0.137952821223E+04   -0.29225E-06   -0.71451E-09  3232   0.923E-05    0.770E-05
DAV:  17    -0.137952821242E+04   -0.19385E-06   -0.41329E-09  3072   0.747E-05    0.459E-05
DAV:  18    -0.137952821255E+04   -0.13255E-06   -0.43274E-09  3072   0.749E-05    0.255E-05
DAV:  19    -0.137952821259E+04   -0.40745E-07   -0.20240E-09  3136   0.673E-05    0.178E-05
DAV:  20    -0.137952821263E+04   -0.37035E-07   -0.11570E-09  3072   0.480E-05    0.244E-05
DAV:  21    -0.137952821264E+04   -0.10390E-07   -0.43660E-11  3072   0.279E-05    0.165E-05
DAV:  22    -0.137952821265E+04   -0.56025E-08    0.25317E-10  2944   0.209E-05
   9 F= -.13990200E+04 E0= -.13990200E+04  d E =0.429501E-03  mag=     0.0000
       N       E                     dE             d eps       ncg     rms          rms(c)
DAV:   1    -0.137952816936E+04    0.43284E-04   -0.11486E+00  5120   0.112E+00    0.230E-01
DAV:   2    -0.137952917585E+04   -0.10065E-02   -0.12620E-02  5728   0.101E-01    0.170E-01
DAV:   3    -0.137952899352E+04    0.18233E-03   -0.14017E-03  6496   0.514E-02    0.840E-02
DAV:   4    -0.137952897033E+04    0.23194E-04   -0.35063E-04  5504   0.222E-02    0.320E-02
DAV:   5    -0.137952896315E+04    0.71771E-05   -0.14989E-04  5568   0.193E-02    0.127E-02
DAV:   6    -0.137952896603E+04   -0.28755E-05   -0.25607E-05  5504   0.649E-03    0.571E-03
DAV:   7    -0.137952897144E+04   -0.54083E-05   -0.58652E-06  6592   0.348E-03    0.293E-03
DAV:   8    -0.137952897552E+04   -0.40834E-05   -0.94921E-07  5632   0.128E-03    0.171E-03
DAV:   9    -0.137952898250E+04   -0.69797E-05   -0.98412E-07  5216   0.148E-03    0.130E-03
DAV:  10    -0.137952898902E+04   -0.65253E-05   -0.61115E-07  5568   0.799E-04    0.111E-03
DAV:  11    -0.137952899418E+04   -0.51511E-05   -0.65733E-07  5216   0.854E-04    0.658E-04
DAV:  12    -0.137952899790E+04   -0.37219E-05   -0.32132E-07  5280   0.561E-04    0.710E-04
DAV:  13    -0.137952899939E+04   -0.14898E-05   -0.87172E-08  5056   0.325E-04    0.314E-04
DAV:  14    -0.137952900083E+04   -0.14407E-05   -0.57720E-08  4736   0.200E-04    0.130E-04
DAV:  15    -0.137952900181E+04   -0.98621E-06   -0.32655E-08  4416   0.128E-04    0.903E-05
DAV:  16    -0.137952900242E+04   -0.60642E-06   -0.18167E-08  3936   0.943E-05    0.585E-05
DAV:  17    -0.137952900274E+04   -0.31745E-06   -0.70629E-09  3296   0.734E-05    0.513E-05
DAV:  18    -0.137952900287E+04   -0.13034E-06   -0.25708E-09  3072   0.610E-05    0.345E-05
DAV:  19    -0.137952900293E+04   -0.58077E-07   -0.11923E-09  3104   0.530E-05    0.166E-05
DAV:  20    -0.137952900298E+04   -0.53522E-07   -0.74603E-10  3072   0.445E-05    0.260E-05
DAV:  21    -0.137952900301E+04   -0.25975E-07   -0.33900E-11  3072   0.313E-05    0.267E-05
DAV:  22    -0.137952900301E+04   -0.59517E-08    0.53652E-10  2944   0.199E-05
  10 F= -.13990208E+04 E0= -.13990208E+04  d E =-.742841E-03  mag=     0.0000
       N       E                     dE             d eps       ncg     rms          rms(c)
DAV:   1    -0.137952892704E+04    0.75970E-04   -0.60210E-01  5120   0.829E-01    0.130E-01
DAV:   2    -0.137952949596E+04   -0.56892E-03   -0.79798E-03  5728   0.857E-02    0.888E-02
DAV:   3    -0.137952940608E+04    0.89877E-04   -0.67224E-04  6400   0.340E-02    0.565E-02
DAV:   4    -0.137952938429E+04    0.21793E-04   -0.30285E-04  5376   0.263E-02    0.209E-02
DAV:   5    -0.137952937810E+04    0.61863E-05   -0.10515E-04  5376   0.169E-02    0.109E-02
DAV:   6    -0.137952937875E+04   -0.64992E-06   -0.19531E-05  6240   0.552E-03    0.686E-03
DAV:   7    -0.137952937878E+04   -0.26354E-07   -0.53338E-06  6464   0.316E-03    0.357E-03
DAV:   8    -0.137952938014E+04   -0.13577E-05   -0.57942E-07  5568   0.122E-03    0.174E-03
DAV:   9    -0.137952938195E+04   -0.18139E-05   -0.36440E-07  5568   0.106E-03    0.806E-04
DAV:  10    -0.137952938379E+04   -0.18387E-05   -0.21191E-07  5520   0.649E-04    0.609E-04
DAV:  11    -0.137952938568E+04   -0.18918E-05   -0.11138E-07  4672   0.408E-04    0.396E-04
DAV:  12    -0.137952938721E+04   -0.15334E-05   -0.83203E-08  4480   0.341E-04    0.241E-04
DAV:  13    -0.137952938820E+04   -0.98052E-06   -0.53215E-08  4496   0.270E-04    0.185E-04
DAV:  14    -0.137952938883E+04   -0.63916E-06   -0.16104E-08  3968   0.120E-04    0.113E-04
DAV:  15    -0.137952938925E+04   -0.41132E-06   -0.91361E-09  3360   0.886E-05    0.639E-05
DAV:  16    -0.137952938956E+04   -0.31741E-06   -0.77982E-09  3360   0.790E-05    0.502E-05
DAV:  17    -0.137952938970E+04   -0.13519E-06   -0.22199E-09  3072   0.530E-05    0.337E-05
DAV:  18    -0.137952938982E+04   -0.12522E-06   -0.37819E-09  3136   0.611E-05    0.332E-05
DAV:  19    -0.137952938985E+04   -0.24607E-07   -0.76283E-10  3072   0.456E-05    0.283E-05
DAV:  20    -0.137952938986E+04   -0.14508E-07   -0.84408E-11  3072   0.308E-05    0.118E-05
DAV:  21    -0.137952938987E+04   -0.10186E-07    0.20233E-10  3072   0.259E-05    0.192E-05
DAV:  22    -0.137952938988E+04   -0.37107E-08    0.53311E-10  3072   0.163E-05
  11 F= -.13990212E+04 E0= -.13990212E+04  d E =-.421887E-03  mag=     0.0000
       N       E                     dE             d eps       ncg     rms          rms(c)
DAV:   1    -0.137952878147E+04    0.60840E-03   -0.54210E-02  5248   0.166E-01    0.483E-02
DAV:   2    -0.137952883524E+04   -0.53770E-04   -0.79024E-04  6112   0.248E-02    0.315E-02
DAV:   3    -0.137952883215E+04    0.30928E-05   -0.55047E-05  6144   0.994E-03    0.171E-02
DAV:   4    -0.137952883272E+04   -0.57244E-06   -0.24026E-05  5440   0.683E-03    0.684E-03
DAV:   5    -0.137952883204E+04    0.67813E-06   -0.83038E-06  6656   0.379E-03    0.291E-03
DAV:   6    -0.137952883206E+04   -0.16473E-07   -0.12989E-06  5824   0.149E-03    0.179E-03
DAV:   7    -0.137952883210E+04   -0.45678E-07   -0.23103E-07  6272   0.915E-04    0.850E-04
DAV:   8    -0.137952883239E+04   -0.28469E-06   -0.11212E-07  5216   0.637E-04    0.487E-04
DAV:   9    -0.137952883280E+04   -0.41173E-06   -0.74543E-08  4992   0.485E-04    0.284E-04
DAV:  10    -0.137952883323E+04   -0.43173E-06   -0.43082E-08  4192   0.352E-04    0.218E-04
DAV:  11    -0.137952883360E+04   -0.36556E-06   -0.24531E-08  4096   0.244E-04    0.129E-04
DAV:  12    -0.137952883394E+04   -0.34414E-06   -0.13229E-08  3648   0.151E-04    0.681E-05
DAV:  13    -0.137952883415E+04   -0.20476E-06   -0.81250E-09  3424   0.994E-05    0.493E-05
DAV:  14    -0.137952883430E+04   -0.14818E-06   -0.44133E-09  3136   0.642E-05    0.289E-05
DAV:  15    -0.137952883438E+04   -0.82044E-07   -0.31680E-09  3072   0.549E-05    0.190E-05
DAV:  16    -0.137952883442E+04   -0.38694E-07   -0.20337E-09  3072   0.610E-05    0.128E-05
DAV:  17    -0.137952883443E+04   -0.15687E-07   -0.11605E-09  3136   0.519E-05    0.101E-05
DAV:  18    -0.137952883444E+04   -0.49622E-08   -0.12790E-10  3072   0.307E-05
  12 F= -.13990205E+04 E0= -.13990205E+04  d E =0.693638E-03  mag=     0.0000
       N       E                     dE             d eps       ncg     rms          rms(c)
DAV:   1    -0.137952965156E+04   -0.81713E-03   -0.55189E-02  5216   0.172E-01    0.644E-02
DAV:   2    -0.137952969026E+04   -0.38699E-04   -0.16175E-03  6432   0.381E-02    0.419E-02
DAV:   3    -0.137952967327E+04    0.16993E-04   -0.12647E-04  6304   0.144E-02    0.248E-02
DAV:   4    -0.137952966217E+04    0.11094E-04   -0.64142E-05  5440   0.114E-02    0.103E-02
DAV:   5    -0.137952965896E+04    0.32159E-05   -0.18283E-05  6496   0.600E-03    0.525E-03
DAV:   6    -0.137952965828E+04    0.67499E-06   -0.54196E-06  6016   0.284E-03    0.322E-03
DAV:   7    -0.137952965765E+04    0.63646E-06   -0.95407E-07  6144   0.188E-03    0.144E-03
DAV:   8    -0.137952965813E+04   -0.48512E-06   -0.49718E-07  6080   0.139E-03    0.937E-04
DAV:   9    -0.137952965924E+04   -0.11061E-05   -0.32135E-07  5728   0.105E-03    0.495E-04
DAV:  10    -0.137952966036E+04   -0.11266E-05   -0.15405E-07  4928   0.678E-04    0.435E-04
DAV:  11    -0.137952966148E+04   -0.11117E-05   -0.62176E-08  4672   0.397E-04    0.264E-04
DAV:  12    -0.137952966264E+04   -0.11674E-05   -0.49834E-08  4288   0.295E-04    0.145E-04
DAV:  13    -0.137952966333E+04   -0.68442E-06   -0.28482E-08  4000   0.188E-04    0.929E-05
DAV:  14    -0.137952966382E+04   -0.49279E-06   -0.11681E-08  3456   0.868E-05    0.556E-05
DAV:  15    -0.137952966414E+04   -0.32021E-06   -0.80476E-09  3296   0.714E-05    0.354E-05
DAV:  16    -0.137952966431E+04   -0.16687E-06   -0.51998E-09  3072   0.761E-05    0.228E-05
DAV:  17    -0.137952966437E+04   -0.63737E-07   -0.34676E-09  3136   0.715E-05    0.190E-05
DAV:  18    -0.137952966439E+04   -0.17404E-07   -0.13323E-09  3072   0.549E-05    0.133E-05
DAV:  19    -0.137952966440E+04   -0.99099E-08   -0.22229E-10  3072   0.310E-05
  13 F= -.13990205E+04 E0= -.13990205E+04  d E =-.574132E-04  mag=     0.0000
       N       E                     dE             d eps       ncg     rms          rms(c)
DAV:   1    -0.137952892371E+04    0.74068E-03   -0.65293E-02  5152   0.212E-01    0.781E-02
DAV:   2    -0.137952899536E+04   -0.71654E-04   -0.18509E-03  5856   0.399E-02    0.532E-02
DAV:   3    -0.137952897055E+04    0.24814E-04   -0.16291E-04  6240   0.167E-02    0.301E-02
DAV:   4    -0.137952895772E+04    0.12831E-04   -0.68334E-05  5440   0.115E-02    0.111E-02
DAV:   5    -0.137952895439E+04    0.33240E-05   -0.21988E-05  6496   0.614E-03    0.530E-03
DAV:   6    -0.137952895405E+04    0.34500E-06   -0.44601E-06  5888   0.251E-03    0.308E-03
DAV:   7    -0.137952895406E+04   -0.75815E-08   -0.70330E-07  6208   0.157E-03    0.147E-03
DAV:   8    -0.137952895490E+04   -0.84010E-06   -0.35313E-07  5984   0.119E-03    0.924E-04
DAV:   9    -0.137952895625E+04   -0.13550E-05   -0.29096E-07  5696   0.946E-04    0.549E-04
DAV:  10    -0.137952895765E+04   -0.13973E-05   -0.17425E-07  5024   0.670E-04    0.476E-04
DAV:  11    -0.137952895888E+04   -0.12329E-05   -0.78029E-08  4768   0.436E-04    0.259E-04
DAV:  12    -0.137952895997E+04   -0.10872E-05   -0.46273E-08  4192   0.278E-04    0.145E-04
DAV:  13    -0.137952896085E+04   -0.87608E-06   -0.39110E-08  4192   0.197E-04    0.904E-05
DAV:  14    -0.137952896137E+04   -0.52576E-06   -0.16775E-08  3712   0.981E-05    0.690E-05
DAV:  15    -0.137952896165E+04   -0.27577E-06   -0.54396E-09  3136   0.616E-05    0.430E-05
DAV:  16    -0.137952896189E+04   -0.24740E-06   -0.87878E-09  3520   0.782E-05    0.280E-05
DAV:  17    -0.137952896198E+04   -0.85973E-07   -0.20352E-09  3072   0.552E-05    0.218E-05
DAV:  18    -0.137952896204E+04   -0.54555E-07   -0.11440E-09  3072   0.494E-05    0.106E-05
DAV:  19    -0.137952896206E+04   -0.20387E-07   -0.25586E-10  3136   0.373E-05    0.872E-06
DAV:  20    -0.137952896206E+04   -0.73924E-08    0.22522E-10  3072   0.227E-05
  14 F= -.13990206E+04 E0= -.13990206E+04  d E =-.812307E-04  mag=     0.0000
       N       E                     dE             d eps       ncg     rms          rms(c)
DAV:   1    -0.137952895276E+04    0.92944E-05   -0.74971E-02  5088   0.191E-01    0.903E-02
DAV:   2    -0.137952892786E+04    0.24899E-04   -0.58210E-04  5376   0.186E-02    0.522E-02
DAV:   3    -0.137952891966E+04    0.82061E-05   -0.17871E-04  5824   0.103E-02    0.125E-02
DAV:   4    -0.137952891704E+04    0.26148E-05   -0.21539E-05  5728   0.345E-03    0.680E-03
DAV:   5    -0.137952891670E+04    0.33669E-06   -0.67943E-06  5088   0.198E-03    0.155E-03
DAV:   6    -0.137952891678E+04   -0.70766E-07   -0.50492E-07  5120   0.684E-04    0.860E-04
DAV:   7    -0.137952891681E+04   -0.33746E-07   -0.67296E-08  4096   0.274E-04    0.376E-04
DAV:   8    -0.137952891692E+04   -0.10912E-06   -0.20234E-08  3840   0.200E-04    0.178E-04
DAV:   9    -0.137952891705E+04   -0.13252E-06   -0.10836E-08  3744   0.152E-04    0.118E-04
DAV:  10    -0.137952891721E+04   -0.15702E-06   -0.67072E-09  3424   0.129E-04    0.692E-05
DAV:  11    -0.137952891735E+04   -0.14259E-06   -0.96900E-09  3712   0.122E-04    0.649E-05
DAV:  12    -0.137952891744E+04   -0.88694E-07   -0.45056E-09  3072   0.932E-05    0.405E-05
DAV:  13    -0.137952891752E+04   -0.79148E-07   -0.52003E-09  3264   0.851E-05    0.388E-05
DAV:  14    -0.137952891754E+04   -0.21580E-07   -0.14490E-09  3072   0.584E-05    0.331E-05
DAV:  15    -0.137952891756E+04   -0.18845E-07   -0.59241E-10  3072   0.431E-05    0.166E-05
DAV:  16    -0.137952891758E+04   -0.20154E-07   -0.18941E-10  3072   0.347E-05    0.202E-05
DAV:  17    -0.137952891759E+04   -0.12398E-07    0.18544E-10  3072   0.246E-05    0.121E-05
DAV:  18    -0.137952891760E+04   -0.92405E-08    0.33379E-10  2944   0.218E-05
  15 F= -.13990205E+04 E0= -.13990205E+04  d E =0.747510E-04  mag=    -0.0000
       N       E                     dE             d eps       ncg     rms          rms(c)
DAV:   1    -0.137952842650E+04    0.49109E-03   -0.76634E-02  5056   0.192E-01    0.103E-01
DAV:   2    -0.137952836574E+04    0.60758E-04   -0.75909E-04  5376   0.207E-02    0.585E-02
DAV:   3    -0.137952835264E+04    0.13101E-04   -0.32579E-04  5680   0.131E-02    0.177E-02
DAV:   4    -0.137952834698E+04    0.56620E-05   -0.36657E-05  5568   0.425E-03    0.106E-02
DAV:   5    -0.137952834624E+04    0.73780E-06   -0.11618E-05  5408   0.246E-03    0.207E-03
DAV:   6    -0.137952834628E+04   -0.46028E-07   -0.83857E-07  5184   0.930E-04    0.949E-04
DAV:   7    -0.137952834633E+04   -0.41226E-07   -0.11041E-07  4896   0.309E-04    0.538E-04
DAV:   8    -0.137952834646E+04   -0.13728E-06   -0.36353E-08  4224   0.272E-04    0.241E-04
DAV:   9    -0.137952834655E+04   -0.82218E-07   -0.12860E-08  3808   0.164E-04    0.150E-04
DAV:  10    -0.137952834667E+04   -0.12599E-06   -0.12136E-08  3680   0.156E-04    0.146E-04
DAV:  11    -0.137952834674E+04   -0.73662E-07   -0.36001E-09  3168   0.998E-05    0.103E-04
DAV:  12    -0.137952834682E+04   -0.78013E-07   -0.53062E-09  3232   0.110E-04    0.530E-05
DAV:  13    -0.137952834689E+04   -0.64043E-07   -0.27800E-09  3136   0.754E-05    0.479E-05
DAV:  14    -0.137952834692E+04   -0.35696E-07   -0.13878E-09  3072   0.591E-05    0.284E-05
DAV:  15    -0.137952834695E+04   -0.30705E-07   -0.16756E-09  3072   0.675E-05    0.281E-05
DAV:  16    -0.137952834697E+04   -0.14887E-07   -0.75339E-10  3072   0.502E-05    0.349E-05
DAV:  17    -0.137952834698E+04   -0.75088E-08    0.58994E-11  2944   0.288E-05
  16 F= -.13990199E+04 E0= -.13990199E+04  d E =0.674912E-03  mag=    -0.0000
       N       E                     dE             d eps       ncg     rms          rms(c)
DAV:   1    -0.137952929568E+04   -0.94871E-03   -0.79338E-02  5184   0.206E-01    0.118E-01
DAV:   2    -0.137952919383E+04    0.10184E-03   -0.13043E-03  5312   0.286E-02    0.684E-02
DAV:   3    -0.137952915877E+04    0.35068E-04   -0.71587E-04  5600   0.202E-02    0.254E-02
DAV:   4    -0.137952914683E+04    0.11941E-04   -0.86954E-05  5536   0.669E-03    0.169E-02
DAV:   5    -0.137952914402E+04    0.28010E-05   -0.23282E-05  5600   0.354E-03    0.481E-03
DAV:   6    -0.137952914352E+04    0.50379E-06   -0.34308E-06  5312   0.155E-03    0.135E-03
DAV:   7    -0.137952914361E+04   -0.91386E-07   -0.42535E-07  4992   0.550E-04    0.108E-03
DAV:   8    -0.137952914373E+04   -0.11650E-06   -0.75266E-08  4272   0.349E-04    0.586E-04
DAV:   9    -0.137952914389E+04   -0.16291E-06   -0.51729E-08  4704   0.348E-04    0.240E-04
DAV:  10    -0.137952914404E+04   -0.15297E-06   -0.29077E-08  3968   0.223E-04    0.262E-04
DAV:  11    -0.137952914419E+04   -0.14735E-06   -0.72347E-09  3424   0.138E-04    0.118E-04
DAV:  12    -0.137952914437E+04   -0.17932E-06   -0.13952E-08  3808   0.162E-04    0.123E-04
DAV:  13    -0.137952914449E+04   -0.11447E-06   -0.81534E-09  3584   0.131E-04    0.740E-05
DAV:  14    -0.137952914453E+04   -0.49200E-07   -0.37900E-09  3296   0.840E-05    0.424E-05
DAV:  15    -0.137952914458E+04   -0.40192E-07   -0.18223E-09  3072   0.663E-05    0.368E-05
DAV:  16    -0.137952914461E+04   -0.30792E-07   -0.14660E-09  3072   0.598E-05    0.240E-05
DAV:  17    -0.137952914462E+04   -0.10536E-07   -0.32539E-10  3072   0.370E-05    0.143E-05
DAV:  18    -0.137952914463E+04   -0.10390E-07   -0.76150E-12  3072   0.271E-05    0.141E-05
DAV:  19    -0.137952914463E+04   -0.29104E-08    0.29446E-10  3072   0.194E-05
  17 F= -.13990208E+04 E0= -.13990208E+04  d E =-.899248E-03  mag=    -0.0000
       N       E                     dE             d eps       ncg     rms          rms(c)
DAV:   1    -0.137952820866E+04    0.93596E-03   -0.76165E-02  4704   0.183E-01    0.999E-02
DAV:   2    -0.137952816247E+04    0.46196E-04   -0.82848E-04  5024   0.197E-02    0.574E-02
DAV:   3    -0.137952814542E+04    0.17046E-04   -0.31282E-04  5344   0.121E-02    0.169E-02
DAV:   4    -0.137952814053E+04    0.48892E-05   -0.34033E-05  5056   0.409E-03    0.104E-02
DAV:   5    -0.137952813998E+04    0.55657E-06   -0.10589E-05  5216   0.235E-03    0.219E-03
DAV:   6    -0.137952813998E+04   -0.74942E-08   -0.77772E-07  4880   0.689E-04    0.935E-04
DAV:   7    -0.137952814005E+04   -0.65120E-07   -0.14307E-07  4784   0.288E-04    0.471E-04
DAV:   8    -0.137952814010E+04   -0.54875E-07   -0.21098E-08  3856   0.160E-04    0.208E-04
DAV:   9    -0.137952814017E+04   -0.62602E-07   -0.82434E-09  3632   0.113E-04    0.107E-04
DAV:  10    -0.137952814022E+04   -0.49593E-07   -0.18758E-09  3136   0.712E-05    0.627E-05
DAV:  11    -0.137952814026E+04   -0.45242E-07   -0.20258E-09  3104   0.665E-05    0.411E-05
DAV:  12    -0.137952814030E+04   -0.34357E-07   -0.14029E-09  3072   0.621E-05    0.262E-05
DAV:  13    -0.137952814032E+04   -0.25888E-07   -0.14270E-09  3072   0.557E-05    0.226E-05
DAV:  14    -0.137952814034E+04   -0.14799E-07   -0.57849E-10  3072   0.432E-05    0.162E-05
DAV:  15    -0.137952814034E+04   -0.84401E-08   -0.15119E-10  3072   0.306E-05
  18 F= -.13990197E+04 E0= -.13990197E+04  d E =0.103232E-02  mag=    -0.0000
       N       E                     dE             d eps       ncg     rms          rms(c)
DAV:   1    -0.137952928600E+04   -0.11457E-02   -0.86005E-02  4928   0.192E-01    0.142E-01
DAV:   2    -0.137952908182E+04    0.20418E-03   -0.18067E-03  5248   0.307E-02    0.808E-02
DAV:   3    -0.137952902113E+04    0.60697E-04   -0.99840E-04  5280   0.213E-02    0.292E-02
DAV:   4    -0.137952900367E+04    0.17460E-04   -0.11597E-04  5216   0.725E-03    0.180E-02
DAV:   5    -0.137952900206E+04    0.16102E-05   -0.22451E-05  5952   0.343E-03    0.437E-03
DAV:   6    -0.137952900175E+04    0.30524E-06   -0.28979E-06  4800   0.127E-03    0.125E-03
DAV:   7    -0.137952900189E+04   -0.14022E-06   -0.50903E-07  5312   0.512E-04    0.103E-03
DAV:   8    -0.137952900213E+04   -0.23887E-06   -0.50002E-08  4000   0.257E-04    0.480E-04
DAV:   9    -0.137952900242E+04   -0.29286E-06   -0.48029E-08  4064   0.226E-04    0.228E-04
DAV:  10    -0.137952900271E+04   -0.28347E-06   -0.14022E-08  3680   0.139E-04    0.157E-04
DAV:  11    -0.137952900297E+04   -0.26719E-06   -0.15030E-08  3744   0.151E-04    0.826E-05
DAV:  12    -0.137952900318E+04   -0.20103E-06   -0.15540E-08  3904   0.169E-04    0.726E-05
DAV:  13    -0.137952900328E+04   -0.10083E-06   -0.78958E-09  3328   0.143E-04    0.541E-05
DAV:  14    -0.137952900335E+04   -0.73909E-07   -0.43951E-09  3264   0.957E-05    0.267E-05
DAV:  15    -0.137952900341E+04   -0.58746E-07   -0.25245E-09  3072   0.695E-05    0.291E-05
DAV:  16    -0.137952900344E+04   -0.31243E-07   -0.12281E-09  3072   0.501E-05    0.158E-05
DAV:  17    -0.137952900346E+04   -0.18903E-07   -0.44815E-10  3072   0.379E-05    0.156E-05
DAV:  18    -0.137952900347E+04   -0.91532E-08    0.19889E-10  3072   0.218E-05
  19 F= -.13990204E+04 E0= -.13990204E+04  d E =-.624101E-03  mag=    -0.0000
       N       E                     dE             d eps       ncg     rms          rms(c)
DAV:   1    -0.137952920749E+04   -0.20403E-03   -0.75012E-02  4896   0.207E-01    0.920E-02
DAV:   2    -0.137952919462E+04    0.12875E-04   -0.77492E-04  5248   0.198E-02    0.555E-02
DAV:   3    -0.137952918441E+04    0.10203E-04   -0.30650E-04  5440   0.125E-02    0.162E-02
DAV:   4    -0.137952917911E+04    0.53034E-05   -0.35722E-05  4832   0.422E-03    0.106E-02
DAV:   5    -0.137952917806E+04    0.10464E-05   -0.15452E-05  4512   0.270E-03    0.196E-03
DAV:   6    -0.137952917842E+04   -0.35846E-06   -0.10745E-06  4576   0.739E-04    0.101E-03
DAV:   7    -0.137952917884E+04   -0.41572E-06   -0.18629E-07  4672   0.306E-04    0.589E-04
DAV:   8    -0.137952917934E+04   -0.49736E-06   -0.47319E-08  3840   0.173E-04    0.250E-04
DAV:   9    -0.137952917972E+04   -0.38685E-06   -0.22164E-08  3952   0.114E-04    0.141E-04
DAV:  10    -0.137952918012E+04   -0.39762E-06   -0.16261E-08  3856   0.103E-04    0.878E-05
DAV:  11    -0.137952918034E+04   -0.22228E-06   -0.84355E-09  3488   0.937E-05    0.664E-05
DAV:  12    -0.137952918049E+04   -0.15087E-06   -0.64482E-09  3296   0.999E-05    0.402E-05
DAV:  13    -0.137952918058E+04   -0.90586E-07   -0.51230E-09  3232   0.980E-05    0.331E-05
DAV:  14    -0.137952918063E+04   -0.50684E-07   -0.27689E-09  3072   0.738E-05    0.258E-05
DAV:  15    -0.137952918067E+04   -0.34837E-07   -0.17224E-09  3072   0.483E-05    0.172E-05
DAV:  16    -0.137952918068E+04   -0.11554E-07   -0.27661E-10  3072   0.297E-05    0.995E-06
DAV:  17    -0.137952918069E+04   -0.72614E-08    0.19737E-10  3072   0.229E-05
  20 F= -.13990208E+04 E0= -.13990208E+04  d E =-.452224E-03  mag=    -0.0000
       N       E                     dE             d eps       ncg     rms          rms(c)
DAV:   1    -0.137952937266E+04   -0.19198E-03   -0.73748E-02  4416   0.201E-01    0.869E-02
DAV:   2    -0.137952936023E+04    0.12425E-04   -0.56177E-04  4832   0.168E-02    0.513E-02
DAV:   3    -0.137952935841E+04    0.18235E-05   -0.18548E-04  5568   0.978E-03    0.120E-02
DAV:   4    -0.137952935581E+04    0.25963E-05   -0.19128E-05  5248   0.338E-03    0.748E-03
DAV:   5    -0.137952935574E+04    0.70519E-07   -0.98902E-06  4864   0.227E-03    0.158E-03
DAV:   6    -0.137952935605E+04   -0.31112E-06   -0.69245E-07  4576   0.693E-04    0.952E-04
DAV:   7    -0.137952935651E+04   -0.45907E-06   -0.88805E-08  4320   0.251E-04    0.453E-04
DAV:   8    -0.137952935701E+04   -0.49616E-06   -0.34937E-08  3936   0.137E-04    0.205E-04
DAV:   9    -0.137952935738E+04   -0.36668E-06   -0.13644E-08  3808   0.995E-05    0.120E-04
DAV:  10    -0.137952935777E+04   -0.39594E-06   -0.11688E-08  3712   0.771E-05    0.908E-05
DAV:  11    -0.137952935805E+04   -0.28161E-06   -0.81770E-09  3584   0.706E-05    0.582E-05
DAV:  12    -0.137952935823E+04   -0.18020E-06   -0.58708E-09  3360   0.743E-05    0.388E-05
DAV:  13    -0.137952935833E+04   -0.96261E-07   -0.31700E-09  3072   0.633E-05    0.373E-05
DAV:  14    -0.137952935841E+04   -0.82830E-07   -0.29869E-09  3072   0.531E-05    0.206E-05
DAV:  15    -0.137952935844E+04   -0.31388E-07   -0.12165E-09  3072   0.435E-05    0.151E-05
DAV:  16    -0.137952935846E+04   -0.12529E-07   -0.29574E-10  3072   0.284E-05    0.116E-05
DAV:  17    -0.137952935847E+04   -0.13286E-07    0.60427E-11  3072   0.213E-05    0.986E-06
DAV:  18    -0.137952935848E+04   -0.68103E-08    0.49232E-10  3024   0.147E-05
  21 F= -.13990210E+04 E0= -.13990210E+04  d E =-.170867E-03  mag=     0.0000
       N       E                     dE             d eps       ncg     rms          rms(c)
DAV:   1    -0.137952826312E+04    0.10954E-02   -0.76310E-02  4416   0.203E-01    0.102E-01
DAV:   2    -0.137952821344E+04    0.49675E-04   -0.88011E-04  5120   0.207E-02    0.601E-02
DAV:   3    -0.137952819629E+04    0.17154E-04   -0.42885E-04  5440   0.148E-02    0.197E-02
DAV:   4    -0.137952818815E+04    0.81341E-05   -0.45136E-05  5216   0.490E-03    0.126E-02
DAV:   5    -0.137952818720E+04    0.95479E-06   -0.17628E-05  5312   0.299E-03    0.254E-03
DAV:   6    -0.137952818764E+04   -0.44184E-06   -0.12370E-06  4832   0.961E-04    0.986E-04
DAV:   7    -0.137952818825E+04   -0.60751E-06   -0.25158E-07  4960   0.392E-04    0.714E-04
DAV:   8    -0.137952818909E+04   -0.83641E-06   -0.67326E-08  4224   0.210E-04    0.266E-04
DAV:   9    -0.137952818973E+04   -0.64437E-06   -0.30559E-08  3936   0.133E-04    0.206E-04
DAV:  10    -0.137952819054E+04   -0.81104E-06   -0.36549E-08  4192   0.137E-04    0.130E-04
DAV:  11    -0.137952819101E+04   -0.47164E-06   -0.17429E-08  3920   0.108E-04    0.777E-05
DAV:  12    -0.137952819135E+04   -0.33564E-06   -0.11669E-08  3728   0.927E-05    0.664E-05
DAV:  13    -0.137952819152E+04   -0.17308E-06   -0.45422E-09  3200   0.803E-05    0.443E-05
DAV:  14    -0.137952819166E+04   -0.14176E-06   -0.52262E-09  3232   0.781E-05    0.271E-05
DAV:  15    -0.137952819172E+04   -0.54744E-07   -0.21448E-09  3072   0.629E-05    0.244E-05
DAV:  16    -0.137952819175E+04   -0.37297E-07   -0.75537E-10  3072   0.435E-05    0.163E-05
DAV:  17    -0.137952819179E+04   -0.35128E-07   -0.50692E-10  3072   0.341E-05    0.190E-05
DAV:  18    -0.137952819180E+04   -0.64756E-08    0.21775E-10  2944   0.220E-05
  22 F= -.13990198E+04 E0= -.13990198E+04  d E =0.122152E-02  mag=    -0.0000
       N       E                     dE             d eps       ncg     rms          rms(c)
DAV:   1    -0.137952931762E+04   -0.11258E-02   -0.78727E-02  4416   0.221E-01    0.111E-01
DAV:   2    -0.137952926098E+04    0.56641E-04   -0.12508E-03  5152   0.280E-02    0.659E-02
DAV:   3    -0.137952923798E+04    0.23007E-04   -0.60709E-04  5376   0.173E-02    0.232E-02
DAV:   4    -0.137952922740E+04    0.10575E-04   -0.60321E-05  5088   0.556E-03    0.147E-02
DAV:   5    -0.137952922560E+04    0.17978E-05   -0.24064E-05  5216   0.343E-03    0.272E-03
DAV:   6    -0.137952922575E+04   -0.14655E-06   -0.17072E-06  5056   0.989E-04    0.115E-03
DAV:   7    -0.137952922593E+04   -0.17758E-06   -0.28110E-07  4832   0.400E-04    0.845E-04
DAV:   8    -0.137952922614E+04   -0.21697E-06   -0.51750E-08  3968   0.202E-04    0.270E-04
DAV:   9    -0.137952922632E+04   -0.17269E-06   -0.19680E-08  3712   0.109E-04    0.180E-04
DAV:  10    -0.137952922652E+04   -0.20341E-06   -0.87634E-09  3552   0.108E-04    0.895E-05
DAV:  11    -0.137952922666E+04   -0.13846E-06   -0.59738E-09  3456   0.804E-05    0.677E-05
DAV:  12    -0.137952922677E+04   -0.10971E-06   -0.51233E-09  3136   0.773E-05    0.425E-05
DAV:  13    -0.137952922684E+04   -0.66793E-07   -0.43726E-09  3136   0.755E-05    0.373E-05
DAV:  14    -0.137952922687E+04   -0.36263E-07   -0.27487E-09  3072   0.687E-05    0.236E-05
DAV:  15    -0.137952922689E+04   -0.22177E-07   -0.20655E-09  3072   0.563E-05    0.191E-05
DAV:  16    -0.137952922690E+04   -0.98080E-08   -0.74929E-10  2944   0.364E-05
  23 F= -.13990209E+04 E0= -.13990209E+04  d E =-.108721E-02  mag=    -0.0000
       N       E                     dE             d eps       ncg     rms          rms(c)
DAV:   1    -0.137952909176E+04    0.13514E-03   -0.73765E-02  4352   0.204E-01    0.851E-02
DAV:   2    -0.137952908789E+04    0.38630E-05   -0.56581E-04  4512   0.167E-02    0.503E-02
DAV:   3    -0.137952908671E+04    0.11790E-05   -0.15360E-04  5632   0.874E-03    0.106E-02
DAV:   4    -0.137952908473E+04    0.19832E-05   -0.15970E-05  4928   0.295E-03    0.652E-03
DAV:   5    -0.137952908466E+04    0.71945E-07   -0.67929E-06  4896   0.192E-03    0.149E-03
DAV:   6    -0.137952908485E+04   -0.19114E-06   -0.56315E-07  4832   0.616E-04    0.823E-04
DAV:   7    -0.137952908513E+04   -0.28050E-06   -0.75746E-08  4192   0.239E-04    0.332E-04
DAV:   8    -0.137952908542E+04   -0.28727E-06   -0.24134E-08  3920   0.128E-04    0.189E-04
DAV:   9    -0.137952908567E+04   -0.25550E-06   -0.91924E-09  3456   0.962E-05    0.927E-05
DAV:  10    -0.137952908594E+04   -0.26585E-06   -0.11647E-08  3712   0.106E-04    0.829E-05
DAV:  11    -0.137952908610E+04   -0.16364E-06   -0.72562E-09  3392   0.114E-04    0.598E-05
DAV:  12    -0.137952908623E+04   -0.13153E-06   -0.63248E-09  3392   0.953E-05    0.321E-05
DAV:  13    -0.137952908631E+04   -0.77096E-07   -0.25866E-09  3072   0.627E-05    0.327E-05
DAV:  14    -0.137952908637E+04   -0.58804E-07   -0.24306E-09  3104   0.568E-05    0.186E-05
DAV:  15    -0.137952908638E+04   -0.12995E-07   -0.52751E-10  3072   0.406E-05    0.129E-05
DAV:  16    -0.137952908640E+04   -0.12515E-07    0.18577E-10  3040   0.215E-05    0.761E-06
DAV:  17    -0.137952908641E+04   -0.98371E-08    0.25545E-10  3072   0.169E-05
  24 F= -.13990207E+04 E0= -.13990207E+04  d E =0.124153E-03  mag=     0.0000
       N       E                     dE             d eps       ncg     rms          rms(c)
DAV:   1    -0.137952801469E+04    0.10717E-02   -0.75646E-02  4352   0.206E-01    0.967E-02
DAV:   2    -0.137952798708E+04    0.27612E-04   -0.85826E-04  4864   0.205E-02    0.571E-02
DAV:   3    -0.137952797349E+04    0.13592E-04   -0.32691E-04  5344   0.129E-02    0.168E-02
DAV:   4    -0.137952796787E+04    0.56175E-05   -0.37226E-05  4928   0.438E-03    0.105E-02
DAV:   5    -0.137952796731E+04    0.56335E-06   -0.13181E-05  5088   0.245E-03    0.198E-03
DAV:   6    -0.137952796764E+04   -0.33627E-06   -0.79187E-07  4800   0.658E-04    0.921E-04
DAV:   7    -0.137952796814E+04   -0.49396E-06   -0.18163E-07  4544   0.325E-04    0.508E-04
DAV:   8    -0.137952796876E+04   -0.62346E-06   -0.53921E-08  4096   0.176E-04    0.229E-04
DAV:   9    -0.137952796933E+04   -0.56412E-06   -0.26264E-08  4064   0.115E-04    0.151E-04
DAV:  10    -0.137952796991E+04   -0.58037E-06   -0.23570E-08  4000   0.975E-05    0.107E-04
DAV:  11    -0.137952797028E+04   -0.37160E-06   -0.13270E-08  3680   0.898E-05    0.632E-05
DAV:  12    -0.137952797054E+04   -0.25843E-06   -0.96519E-09  3584   0.936E-05    0.496E-05
DAV:  13    -0.137952797070E+04   -0.16105E-06   -0.58391E-09  3232   0.851E-05    0.382E-05
DAV:  14    -0.137952797081E+04   -0.11246E-06   -0.43203E-09  3200   0.682E-05    0.166E-05
DAV:  15    -0.137952797086E+04   -0.47745E-07   -0.15741E-09  3072   0.519E-05    0.159E-05
DAV:  16    -0.137952797088E+04   -0.26834E-07   -0.40700E-10  3072   0.336E-05    0.103E-05
DAV:  17    -0.137952797090E+04   -0.18728E-07    0.16725E-11  3072   0.268E-05    0.899E-06
DAV:  18    -0.137952797091E+04   -0.71595E-08    0.51192E-10  3072   0.162E-05
  25 F= -.13990196E+04 E0= -.13990196E+04  d E =0.114503E-02  mag=    -0.0000
       N       E                     dE             d eps       ncg     rms          rms(c)
DAV:   1    -0.137952858231E+04   -0.61141E-03   -0.82324E-02  5024   0.221E-01    0.127E-01
DAV:   2    -0.137952848719E+04    0.95115E-04   -0.17375E-03  5312   0.335E-02    0.759E-02
DAV:   3    -0.137952843844E+04    0.48758E-04   -0.91258E-04  5344   0.217E-02    0.281E-02
DAV:   4    -0.137952842492E+04    0.13520E-04   -0.98699E-05  5120   0.705E-03    0.180E-02
DAV:   5    -0.137952842236E+04    0.25516E-05   -0.30204E-05  5344   0.393E-03    0.380E-03
DAV:   6    -0.137952842243E+04   -0.62937E-07   -0.25888E-06  5024   0.126E-03    0.132E-03
DAV:   7    -0.137952842256E+04   -0.12743E-06   -0.38810E-07  5056   0.496E-04    0.864E-04
DAV:   8    -0.137952842273E+04   -0.17957E-06   -0.49806E-08  4064   0.223E-04    0.451E-04
DAV:   9    -0.137952842293E+04   -0.19492E-06   -0.24000E-08  3936   0.145E-04    0.168E-04
DAV:  10    -0.137952842311E+04   -0.18430E-06   -0.61155E-09  3264   0.892E-05    0.107E-04
DAV:  11    -0.137952842332E+04   -0.20239E-06   -0.82438E-09  3680   0.793E-05    0.788E-05
DAV:  12    -0.137952842345E+04   -0.13800E-06   -0.38803E-09  3136   0.706E-05    0.437E-05
DAV:  13    -0.137952842358E+04   -0.12564E-06   -0.56701E-09  3392   0.715E-05    0.454E-05
DAV:  14    -0.137952842363E+04   -0.53842E-07   -0.25390E-09  3072   0.774E-05    0.247E-05
DAV:  15    -0.137952842367E+04   -0.40425E-07   -0.32579E-09  3136   0.797E-05    0.225E-05
DAV:  16    -0.137952842368E+04   -0.99681E-08   -0.10141E-09  3072   0.532E-05
  26 F= -.13990200E+04 E0= -.13990200E+04  d E =-.455654E-03  mag=    -0.0000
       N       E                     dE             d eps       ncg     rms          rms(c)
DAV:   1    -0.137952892132E+04   -0.49765E-03   -0.73047E-02  4992   0.188E-01    0.822E-02
DAV:   2    -0.137952893150E+04   -0.10178E-04   -0.51121E-04  5440   0.153E-02    0.491E-02
DAV:   3    -0.137952892787E+04    0.36313E-05   -0.12016E-04  5440   0.776E-03    0.893E-03
DAV:   4    -0.137952892682E+04    0.10511E-05   -0.12507E-05  4864   0.259E-03    0.532E-03
DAV:   5    -0.137952892661E+04    0.20467E-06   -0.58489E-06  4704   0.185E-03    0.138E-03
DAV:   6    -0.137952892664E+04   -0.28682E-07   -0.60567E-07  4480   0.642E-04    0.795E-04
DAV:   7    -0.137952892673E+04   -0.91415E-07   -0.74358E-08  4128   0.269E-04    0.318E-04
DAV:   8    -0.137952892682E+04   -0.90426E-07   -0.23041E-08  3904   0.155E-04    0.185E-04
DAV:   9    -0.137952892692E+04   -0.98109E-07   -0.93747E-09  3616   0.129E-04    0.998E-05
DAV:  10    -0.137952892701E+04   -0.89509E-07   -0.66625E-09  3456   0.115E-04    0.612E-05
DAV:  11    -0.137952892708E+04   -0.65891E-07   -0.57530E-09  3200   0.109E-04    0.402E-05
DAV:  12    -0.137952892712E+04   -0.40716E-07   -0.51729E-09  3072   0.109E-04    0.292E-05
DAV:  13    -0.137952892715E+04   -0.34663E-07   -0.33691E-09  3072   0.828E-05    0.213E-05
DAV:  14    -0.137952892717E+04   -0.22002E-07   -0.13744E-09  2944   0.462E-05    0.175E-05
DAV:  15    -0.137952892719E+04   -0.14727E-07   -0.39133E-10  3072   0.306E-05    0.105E-05
DAV:  16    -0.137952892720E+04   -0.76689E-08    0.91417E-11  2944   0.231E-05
  27 F= -.13990206E+04 E0= -.13990206E+04  d E =-.517566E-03  mag=    -0.0000
       N       E                     dE             d eps       ncg     rms          rms(c)
DAV:   1    -0.137952933980E+04   -0.41261E-03   -0.72262E-02  5024   0.188E-01    0.773E-02
DAV:   2    -0.137952936410E+04   -0.24294E-04   -0.47225E-04  5344   0.148E-02    0.468E-02
DAV:   3    -0.137952936429E+04   -0.19778E-06   -0.64482E-05  5344   0.590E-03    0.501E-03
DAV:   4    -0.137952936441E+04   -0.11818E-06   -0.58856E-06  5760   0.160E-03    0.292E-03
DAV:   5    -0.137952936427E+04    0.14030E-06   -0.16255E-06  4928   0.114E-03    0.905E-04
DAV:   6    -0.137952936441E+04   -0.13603E-06   -0.23981E-07  4448   0.453E-04    0.556E-04
DAV:   7    -0.137952936454E+04   -0.13172E-06   -0.40233E-08  3936   0.183E-04    0.256E-04
DAV:   8    -0.137952936469E+04   -0.15057E-06   -0.11929E-08  3712   0.122E-04    0.160E-04
DAV:   9    -0.137952936487E+04   -0.18462E-06   -0.12997E-08  3888   0.138E-04    0.930E-05
DAV:  10    -0.137952936504E+04   -0.16438E-06   -0.10740E-08  3680   0.124E-04    0.534E-05
DAV:  11    -0.137952936511E+04   -0.67914E-07   -0.35057E-09  3168   0.866E-05    0.458E-05
DAV:  12    -0.137952936516E+04   -0.56272E-07   -0.28633E-09  3040   0.784E-05    0.284E-05
DAV:  13    -0.137952936522E+04   -0.53056E-07   -0.36681E-09  3040   0.788E-05    0.227E-05
DAV:  14    -0.137952936523E+04   -0.10652E-07   -0.10698E-09  2944   0.523E-05    0.165E-05
DAV:  15    -0.137952936524E+04   -0.15541E-07   -0.41794E-10  3008   0.316E-05    0.132E-05
DAV:  16    -0.137952936525E+04   -0.49040E-08    0.19403E-10  2880   0.218E-05
  28 F= -.13990207E+04 E0= -.13990207E+04  d E =-.964977E-04  mag=    -0.0000
       N       E                     dE             d eps       ncg     rms          rms(c)
DAV:   1    -0.137952923731E+04    0.12793E-03   -0.75240E-02  5152   0.205E-01    0.933E-02
DAV:   2    -0.137952919760E+04    0.39713E-04   -0.64976E-04  5120   0.186E-02    0.543E-02
DAV:   3    -0.137952918732E+04    0.10276E-04   -0.32022E-04  5184   0.125E-02    0.170E-02
DAV:   4    -0.137952918241E+04    0.49150E-05   -0.32657E-05  4800   0.399E-03    0.113E-02
DAV:   5    -0.137952918149E+04    0.92036E-06   -0.15747E-05  4576   0.268E-03    0.200E-03
DAV:   6    -0.137952918154E+04   -0.50248E-07   -0.91764E-07  4448   0.747E-04    0.107E-03
DAV:   7    -0.137952918169E+04   -0.14663E-06   -0.16476E-07  4640   0.296E-04    0.622E-04
DAV:   8    -0.137952918185E+04   -0.16361E-06   -0.40126E-08  3904   0.184E-04    0.201E-04
DAV:   9    -0.137952918199E+04   -0.14491E-06   -0.14932E-08  3904   0.117E-04    0.147E-04
DAV:  10    -0.137952918214E+04   -0.14860E-06   -0.60119E-09  3264   0.901E-05    0.755E-05
DAV:  11    -0.137952918227E+04   -0.12525E-06   -0.74944E-09  3552   0.885E-05    0.552E-05
DAV:  12    -0.137952918232E+04   -0.55792E-07   -0.29264E-09  3072   0.888E-05    0.356E-05
DAV:  13    -0.137952918239E+04   -0.62268E-07   -0.45358E-09  3168   0.889E-05    0.389E-05
DAV:  14    -0.137952918240E+04   -0.16895E-07   -0.13006E-09  2944   0.574E-05    0.272E-05
DAV:  15    -0.137952918242E+04   -0.20576E-07   -0.10768E-09  3072   0.499E-05    0.325E-05
DAV:  16    -0.137952918243E+04   -0.81491E-08   -0.19547E-10  2944   0.351E-05
  29 F= -.13990209E+04 E0= -.13990209E+04  d E =-.203257E-03  mag=     0.0000
       N       E                     dE             d eps       ncg     rms          rms(c)
DAV:   1    -0.137952811629E+04    0.10661E-02   -0.75658E-02  4928   0.197E-01    0.100E-01
DAV:   2    -0.137952805662E+04    0.59672E-04   -0.76025E-04  5184   0.210E-02    0.574E-02
DAV:   3    -0.137952804137E+04    0.15248E-04   -0.34677E-04  5536   0.132E-02    0.178E-02
DAV:   4    -0.137952803562E+04    0.57550E-05   -0.34265E-05  5280   0.430E-03    0.110E-02
DAV:   5    -0.137952803508E+04    0.53525E-06   -0.13805E-05  5056   0.262E-03    0.196E-03
DAV:   6    -0.137952803512E+04   -0.34473E-07   -0.89439E-07  4640   0.764E-04    0.101E-03
DAV:   7    -0.137952803520E+04   -0.86293E-07   -0.13933E-07  4544   0.267E-04    0.656E-04
DAV:   8    -0.137952803528E+04   -0.82073E-07   -0.26398E-08  3904   0.178E-04    0.206E-04
DAV:   9    -0.137952803535E+04   -0.68176E-07   -0.11024E-08  3520   0.121E-04    0.130E-04
DAV:  10    -0.137952803541E+04   -0.54613E-07   -0.28917E-09  3104   0.701E-05    0.754E-05
DAV:  11    -0.137952803546E+04   -0.52285E-07   -0.22764E-09  3072   0.634E-05    0.408E-05
DAV:  12    -0.137952803550E+04   -0.46130E-07   -0.30997E-09  3072   0.713E-05    0.349E-05
DAV:  13    -0.137952803553E+04   -0.20736E-07   -0.19460E-09  3072   0.624E-05    0.317E-05
DAV:  14    -0.137952803555E+04   -0.19500E-07   -0.13490E-09  3072   0.490E-05    0.211E-05
DAV:  15    -0.137952803555E+04   -0.94005E-08   -0.64675E-10  2944   0.345E-05
  30 F= -.13990196E+04 E0= -.13990196E+04  d E =0.122716E-02  mag=    -0.0000
       N       E                     dE             d eps       ncg     rms          rms(c)
DAV:   1    -0.137952929665E+04   -0.12611E-02   -0.83050E-02  4992   0.205E-01    0.133E-01
DAV:   2    -0.137952913863E+04    0.15802E-03   -0.16194E-03  5120   0.307E-02    0.767E-02
DAV:   3    -0.137952908728E+04    0.51351E-04   -0.86530E-04  5216   0.211E-02    0.282E-02
DAV:   4    -0.137952907149E+04    0.15792E-04   -0.92344E-05  5152   0.683E-03    0.173E-02
DAV:   5    -0.137952906996E+04    0.15267E-05   -0.25039E-05  5664   0.357E-03    0.344E-03
DAV:   6    -0.137952906982E+04    0.13999E-06   -0.22718E-06  4800   0.121E-03    0.117E-03
DAV:   7    -0.137952906992E+04   -0.10018E-06   -0.33874E-07  5088   0.431E-04    0.882E-04
DAV:   8    -0.137952907012E+04   -0.20133E-06   -0.43578E-08  4096   0.247E-04    0.386E-04
DAV:   9    -0.137952907035E+04   -0.22643E-06   -0.29499E-08  3936   0.192E-04    0.178E-04
DAV:  10    -0.137952907059E+04   -0.24223E-06   -0.93225E-09  3616   0.111E-04    0.132E-04
DAV:  11    -0.137952907083E+04   -0.23939E-06   -0.83220E-09  3712   0.986E-05    0.836E-05
DAV:  12    -0.137952907107E+04   -0.23804E-06   -0.11881E-08  3760   0.108E-04    0.583E-05
DAV:  13    -0.137952907116E+04   -0.96930E-07   -0.32999E-09  3088   0.849E-05    0.470E-05
DAV:  14    -0.137952907124E+04   -0.76441E-07   -0.34737E-09  3136   0.689E-05    0.309E-05
DAV:  15    -0.137952907129E+04   -0.50277E-07   -0.17689E-09  3072   0.534E-05    0.255E-05
DAV:  16    -0.137952907131E+04   -0.19296E-07   -0.63236E-10  2944   0.399E-05    0.148E-05
DAV:  17    -0.137952907133E+04   -0.20489E-07   -0.33429E-10  3072   0.352E-05    0.222E-05
DAV:  18    -0.137952907134E+04   -0.10390E-07    0.23540E-10  2944   0.228E-05    0.189E-05
DAV:  19    -0.137952907134E+04   -0.22555E-08    0.53166E-10  2816   0.189E-05
  31 F= -.13990205E+04 E0= -.13990205E+04  d E =-.891619E-03  mag=    -0.0000
       N       E                     dE             d eps       ncg     rms          rms(c)
DAV:   1    -0.137952913177E+04   -0.60429E-04   -0.73211E-02  5120   0.217E-01    0.823E-02
DAV:   2    -0.137952915384E+04   -0.22069E-04   -0.68693E-04  5536   0.192E-02    0.510E-02
DAV:   3    -0.137952914572E+04    0.81163E-05   -0.18259E-04  5312   0.104E-02    0.116E-02
DAV:   4    -0.137952914357E+04    0.21498E-05   -0.21515E-05  5088   0.341E-03    0.754E-03
DAV:   5    -0.137952914289E+04    0.68043E-06   -0.10281E-05  4704   0.227E-03    0.165E-03
DAV:   6    -0.137952914301E+04   -0.11367E-06   -0.78153E-07  4576   0.716E-04    0.904E-04
DAV:   7    -0.137952914321E+04   -0.20619E-06   -0.11161E-07  4480   0.288E-04    0.360E-04
DAV:   8    -0.137952914343E+04   -0.21607E-06   -0.31682E-08  4032   0.153E-04    0.233E-04
DAV:   9    -0.137952914366E+04   -0.23528E-06   -0.96453E-09  3712   0.919E-05    0.113E-04
DAV:  10    -0.137952914392E+04   -0.25309E-06   -0.10539E-08  3840   0.885E-05    0.766E-05
DAV:  11    -0.137952914409E+04   -0.17931E-06   -0.57286E-09  3392   0.807E-05    0.699E-05
DAV:  12    -0.137952914424E+04   -0.14948E-06   -0.68512E-09  3520   0.102E-04    0.331E-05
DAV:  13    -0.137952914432E+04   -0.76529E-07   -0.39821E-09  3072   0.991E-05    0.314E-05
DAV:  14    -0.137952914436E+04   -0.43350E-07   -0.20654E-09  3072   0.656E-05    0.268E-05
DAV:  15    -0.137952914440E+04   -0.39319E-07   -0.11085E-09  3072   0.444E-05    0.164E-05
DAV:  16    -0.137952914442E+04   -0.12427E-07   -0.82096E-11  2944   0.269E-05    0.105E-05
DAV:  17    -0.137952914443E+04   -0.99681E-08    0.27923E-10  3008   0.207E-05
  32 F= -.13990207E+04 E0= -.13990207E+04  d E =-.173846E-03  mag=     0.0000
       N       E                     dE             d eps       ncg     rms          rms(c)
DAV:   1    -0.137952885763E+04    0.28679E-03   -0.73560E-02  5056   0.205E-01    0.847E-02
DAV:   2    -0.137952885933E+04   -0.17077E-05   -0.56025E-04  5312   0.178E-02    0.498E-02
DAV:   3    -0.137952885351E+04    0.58229E-05   -0.12971E-04  5568   0.862E-03    0.980E-03
DAV:   4    -0.137952885212E+04    0.13933E-05   -0.12441E-05  5568   0.288E-03    0.539E-03
DAV:   5    -0.137952885193E+04    0.18226E-06   -0.51133E-06  5152   0.174E-03    0.153E-03
DAV:   6    -0.137952885199E+04   -0.51019E-07   -0.56021E-07  4800   0.733E-04    0.768E-04
DAV:   7    -0.137952885202E+04   -0.35841E-07   -0.59644E-08  4288   0.278E-04    0.327E-04
DAV:   8    -0.137952885209E+04   -0.67841E-07   -0.19858E-08  3808   0.143E-04    0.182E-04
DAV:   9    -0.137952885215E+04   -0.58688E-07   -0.33952E-09  3008   0.898E-05    0.972E-05
DAV:  10    -0.137952885224E+04   -0.90527E-07   -0.69653E-09  3328   0.922E-05    0.877E-05
DAV:  11    -0.137952885228E+04   -0.39858E-07   -0.10995E-09  2944   0.546E-05    0.663E-05
DAV:  12    -0.137952885235E+04   -0.67783E-07   -0.42874E-09  3136   0.789E-05    0.631E-05
DAV:  13    -0.137952885237E+04   -0.21275E-07   -0.70404E-10  2944   0.546E-05    0.470E-05
DAV:  14    -0.137952885239E+04   -0.23385E-07   -0.10811E-09  3040   0.517E-05    0.280E-05
DAV:  15    -0.137952885241E+04   -0.19601E-07   -0.41336E-10  3040   0.409E-05    0.219E-05
DAV:  16    -0.137952885242E+04   -0.14174E-07   -0.20370E-10  3072   0.297E-05    0.971E-06
DAV:  17    -0.137952885243E+04   -0.60973E-08    0.33401E-10  3072   0.192E-05
  33 F= -.13990206E+04 E0= -.13990206E+04  d E =0.138198E-03  mag=     0.0000
       N       E                     dE             d eps       ncg     rms          rms(c)
DAV:   1    -0.137952831961E+04    0.53282E-03   -0.76110E-02  5088   0.206E-01    0.989E-02
DAV:   2    -0.137952827787E+04    0.41740E-04   -0.71886E-04  5312   0.209E-02    0.567E-02
DAV:   3    -0.137952826843E+04    0.94328E-05   -0.28184E-04  5632   0.123E-02    0.160E-02
DAV:   4    -0.137952826365E+04    0.47834E-05   -0.30853E-05  5504   0.389E-03    0.933E-03
DAV:   5    -0.137952826311E+04    0.53571E-06   -0.10358E-05  5088   0.224E-03    0.171E-03
DAV:   6    -0.137952826318E+04   -0.66138E-07   -0.65560E-07  5024   0.731E-04    0.894E-04
DAV:   7    -0.137952826323E+04   -0.50844E-07   -0.99523E-08  4576   0.272E-04    0.429E-04
DAV:   8    -0.137952826334E+04   -0.10796E-06   -0.21316E-08  3680   0.161E-04    0.195E-04
DAV:   9    -0.137952826343E+04   -0.93016E-07   -0.84754E-09  3472   0.112E-04    0.101E-04
DAV:  10    -0.137952826351E+04   -0.77547E-07   -0.31465E-09  3168   0.782E-05    0.667E-05
DAV:  11    -0.137952826359E+04   -0.84357E-07   -0.31940E-09  3264   0.623E-05    0.492E-05
DAV:  12    -0.137952826366E+04   -0.64712E-07   -0.18984E-09  3072   0.551E-05    0.278E-05
DAV:  13    -0.137952826371E+04   -0.52474E-07   -0.24583E-09  3200   0.616E-05    0.224E-05
DAV:  14    -0.137952826373E+04   -0.21348E-07   -0.90535E-10  3072   0.512E-05    0.208E-05
DAV:  15    -0.137952826376E+04   -0.23836E-07   -0.54351E-10  3040   0.340E-05    0.111E-05
DAV:  16    -0.137952826376E+04   -0.80036E-08    0.10713E-10  3072   0.226E-05
  34 F= -.13990196E+04 E0= -.13990196E+04  d E =0.931350E-03  mag=    -0.0000
       N       E                     dE             d eps       ncg     rms          rms(c)
DAV:   1    -0.137952915498E+04   -0.89122E-03   -0.78603E-02  5056   0.213E-01    0.112E-01
DAV:   2    -0.137952909046E+04    0.64518E-04   -0.11743E-03  5216   0.270E-02    0.659E-02
DAV:   3    -0.137952906411E+04    0.26353E-04   -0.57091E-04  5376   0.171E-02    0.234E-02
DAV:   4    -0.137952905403E+04    0.10073E-04   -0.61172E-05  5072   0.544E-03    0.152E-02
DAV:   5    -0.137952905186E+04    0.21726E-05   -0.21162E-05  4992   0.323E-03    0.347E-03
DAV:   6    -0.137952905184E+04    0.18714E-07   -0.22585E-06  5248   0.116E-03    0.113E-03
DAV:   7    -0.137952905199E+04   -0.14581E-06   -0.22941E-07  4960   0.376E-04    0.742E-04
DAV:   8    -0.137952905217E+04   -0.17771E-06   -0.39383E-08  4032   0.202E-04    0.274E-04
DAV:   9    -0.137952905228E+04   -0.11260E-06   -0.12585E-08  3616   0.128E-04    0.139E-04
DAV:  10    -0.137952905239E+04   -0.11387E-06   -0.72097E-09  3296   0.103E-04    0.103E-04
DAV:  11    -0.137952905246E+04   -0.68365E-07   -0.23181E-09  3072   0.741E-05    0.728E-05
DAV:  12    -0.137952905256E+04   -0.94980E-07   -0.51799E-09  3264   0.878E-05    0.720E-05
DAV:  13    -0.137952905260E+04   -0.47803E-07   -0.18751E-09  3072   0.711E-05    0.431E-05
DAV:  14    -0.137952905265E+04   -0.44922E-07   -0.31846E-09  3072   0.792E-05    0.645E-05
DAV:  15    -0.137952905267E+04   -0.20154E-07   -0.13495E-09  3072   0.679E-05    0.471E-05
DAV:  16    -0.137952905268E+04   -0.11481E-07   -0.61443E-10  2944   0.467E-05    0.118E-05
DAV:  17    -0.137952905269E+04   -0.86147E-08   -0.95020E-11  3072   0.307E-05
  35 F= -.13990207E+04 E0= -.13990207E+04  d E =-.107439E-02  mag=     0.0000
       N       E                     dE             d eps       ncg     rms          rms(c)
DAV:   1    -0.137952836439E+04    0.68829E-03   -0.77536E-02  4448   0.188E-01    0.104E-01
DAV:   2    -0.137952829978E+04    0.64605E-04   -0.77329E-04  4960   0.198E-02    0.595E-02
DAV:   3    -0.137952828244E+04    0.17342E-04   -0.32945E-04  5184   0.122E-02    0.173E-02
DAV:   4    -0.137952827653E+04    0.59053E-05   -0.37278E-05  4768   0.433E-03    0.101E-02
DAV:   5    -0.137952827633E+04    0.20518E-06   -0.10714E-05  5280   0.241E-03    0.199E-03
DAV:   6    -0.137952827654E+04   -0.21544E-06   -0.68658E-07  4736   0.664E-04    0.963E-04
DAV:   7    -0.137952827678E+04   -0.23778E-06   -0.14106E-07  4608   0.302E-04    0.487E-04
DAV:   8    -0.137952827706E+04   -0.28024E-06   -0.27283E-08  3808   0.158E-04    0.232E-04
DAV:   9    -0.137952827733E+04   -0.27023E-06   -0.12095E-08  3712   0.103E-04    0.132E-04
DAV:  10    -0.137952827760E+04   -0.26729E-06   -0.79292E-09  3552   0.858E-05    0.915E-05
DAV:  11    -0.137952827784E+04   -0.24118E-06   -0.87133E-09  3648   0.919E-05    0.588E-05
DAV:  12    -0.137952827799E+04   -0.14534E-06   -0.48817E-09  3200   0.854E-05    0.427E-05
DAV:  13    -0.137952827809E+04   -0.10314E-06   -0.41205E-09  3168   0.749E-05    0.307E-05
DAV:  14    -0.137952827814E+04   -0.47250E-07   -0.20519E-09  3072   0.590E-05    0.181E-05
DAV:  15    -0.137952827816E+04   -0.28143E-07   -0.11003E-09  3072   0.443E-05    0.126E-05
DAV:  16    -0.137952827818E+04   -0.13926E-07   -0.29070E-10  2944   0.323E-05    0.111E-05
DAV:  17    -0.137952827819E+04   -0.69267E-08    0.19278E-10  3040   0.228E-05
  36 F= -.13990198E+04 E0= -.13990198E+04  d E =0.872325E-03  mag=    -0.0000
       N       E                     dE             d eps       ncg     rms          rms(c)
DAV:   1    -0.137952951238E+04   -0.12342E-02   -0.86040E-02  4640   0.194E-01    0.143E-01
DAV:   2    -0.137952932275E+04    0.18963E-03   -0.19317E-03  4928   0.319E-02    0.802E-02
DAV:   3    -0.137952926072E+04    0.62032E-04   -0.83754E-04  5184   0.197E-02    0.277E-02
DAV:   4    -0.137952924741E+04    0.13312E-04   -0.88938E-05  5344   0.655E-03    0.167E-02
DAV:   5    -0.137952924578E+04    0.16299E-05   -0.20588E-05  5856   0.338E-03    0.353E-03
DAV:   6    -0.137952924565E+04    0.12568E-06   -0.17827E-06  5040   0.109E-03    0.127E-03
DAV:   7    -0.137952924575E+04   -0.10016E-06   -0.38157E-07  5104   0.489E-04    0.648E-04
DAV:   8    -0.137952924588E+04   -0.13200E-06   -0.36420E-08  3872   0.214E-04    0.346E-04
DAV:   9    -0.137952924608E+04   -0.19200E-06   -0.22670E-08  3872   0.149E-04    0.174E-04
DAV:  10    -0.137952924627E+04   -0.19782E-06   -0.10669E-08  3616   0.123E-04    0.120E-04
DAV:  11    -0.137952924643E+04   -0.15204E-06   -0.58073E-09  3360   0.837E-05    0.903E-05
DAV:  12    -0.137952924655E+04   -0.12459E-06   -0.60345E-09  3424   0.784E-05    0.502E-05
DAV:  13    -0.137952924665E+04   -0.10344E-06   -0.47514E-09  3232   0.672E-05    0.479E-05
DAV:  14    -0.137952924670E+04   -0.50844E-07   -0.19569E-09  3072   0.547E-05    0.278E-05
DAV:  15    -0.137952924676E+04   -0.56301E-07   -0.30231E-09  3136   0.574E-05    0.245E-05
DAV:  16    -0.137952924678E+04   -0.14930E-07   -0.81934E-10  2944   0.451E-05    0.204E-05
DAV:  17    -0.137952924679E+04   -0.13897E-07   -0.13934E-10  3072   0.339E-05    0.132E-05
DAV:  18    -0.137952924681E+04   -0.16225E-07   -0.84619E-11  3072   0.273E-05    0.209E-05
DAV:  19    -0.137952924681E+04   -0.30268E-08    0.44997E-10  2944   0.172E-05
  37 F= -.13990207E+04 E0= -.13990207E+04  d E =-.884472E-03  mag=    -0.0000
       N       E                     dE             d eps       ncg     rms          rms(c)
DAV:   1    -0.137952910156E+04    0.14525E-03   -0.74670E-02  4992   0.193E-01    0.886E-02
DAV:   2    -0.137952910666E+04   -0.51054E-05   -0.76679E-04  5184   0.181E-02    0.530E-02
DAV:   3    -0.137952910227E+04    0.43908E-05   -0.22839E-04  5552   0.105E-02    0.138E-02
DAV:   4    -0.137952909842E+04    0.38492E-05   -0.26500E-05  5088   0.352E-03    0.849E-03
DAV:   5    -0.137952909781E+04    0.61275E-06   -0.11701E-05  4736   0.235E-03    0.165E-03
DAV:   6    -0.137952909795E+04   -0.13536E-06   -0.78105E-07  4896   0.767E-04    0.907E-04
DAV:   7    -0.137952909803E+04   -0.86482E-07   -0.82622E-08  4384   0.262E-04    0.432E-04
DAV:   8    -0.137952909816E+04   -0.12587E-06   -0.29716E-08  3776   0.161E-04    0.217E-04
DAV:   9    -0.137952909825E+04   -0.89916E-07   -0.52225E-09  3168   0.917E-05    0.107E-04
DAV:  10    -0.137952909835E+04   -0.99390E-07   -0.71019E-09  3520   0.893E-05    0.819E-05
DAV:  11    -0.137952909842E+04   -0.76179E-07   -0.30067E-09  3136   0.799E-05    0.602E-05
DAV:  12    -0.137952909848E+04   -0.60187E-07   -0.38520E-09  3168   0.856E-05    0.318E-05
DAV:  13    -0.137952909851E+04   -0.26281E-07   -0.19017E-09  3072   0.700E-05    0.264E-05
DAV:  14    -0.137952909854E+04   -0.32029E-07   -0.12911E-09  3072   0.497E-05    0.193E-05
DAV:  15    -0.137952909856E+04   -0.19820E-07   -0.35513E-10  3072   0.347E-05    0.164E-05
DAV:  16    -0.137952909857E+04   -0.75961E-08    0.12547E-10  2976   0.228E-05
  38 F= -.13990208E+04 E0= -.13990208E+04  d E =-.423904E-04  mag=    -0.0000
       N       E                     dE             d eps       ncg     rms          rms(c)
DAV:   1    -0.137952845104E+04    0.64752E-03   -0.77013E-02  4960   0.187E-01    0.103E-01
DAV:   2    -0.137952838078E+04    0.70264E-04   -0.77505E-04  5008   0.192E-02    0.588E-02
DAV:   3    -0.137952836462E+04    0.16152E-04   -0.31959E-04  5024   0.120E-02    0.169E-02
DAV:   4    -0.137952835902E+04    0.56080E-05   -0.37005E-05  4800   0.426E-03    0.989E-03
DAV:   5    -0.137952835896E+04    0.55050E-07   -0.91707E-06  5472   0.223E-03    0.207E-03
DAV:   6    -0.137952835911E+04   -0.14555E-06   -0.56954E-07  4672   0.582E-04    0.952E-04
DAV:   7    -0.137952835927E+04   -0.16406E-06   -0.14165E-07  4496   0.292E-04    0.500E-04
DAV:   8    -0.137952835947E+04   -0.20252E-06   -0.22280E-08  3680   0.133E-04    0.229E-04
DAV:   9    -0.137952835969E+04   -0.21419E-06   -0.12462E-08  3680   0.961E-05    0.128E-04
DAV:  10    -0.137952835986E+04   -0.17723E-06   -0.45780E-09  3264   0.724E-05    0.810E-05
DAV:  11    -0.137952836006E+04   -0.19731E-06   -0.79209E-09  3424   0.891E-05    0.497E-05
DAV:  12    -0.137952836017E+04   -0.10521E-06   -0.45290E-09  3264   0.900E-05    0.384E-05
DAV:  13    -0.137952836024E+04   -0.74273E-07   -0.30743E-09  3200   0.679E-05    0.252E-05
DAV:  14    -0.137952836028E+04   -0.39799E-07   -0.14824E-09  3072   0.507E-05    0.145E-05
DAV:  15    -0.137952836030E+04   -0.18219E-07   -0.61035E-10  3072   0.369E-05    0.122E-05
DAV:  16    -0.137952836031E+04   -0.10492E-07    0.10078E-10  3072   0.257E-05    0.907E-06
DAV:  17    -0.137952836031E+04   -0.37544E-08    0.34458E-10  3072   0.182E-05
  39 F= -.13990199E+04 E0= -.13990199E+04  d E =0.865401E-03  mag=     0.0000
       N       E                     dE             d eps       ncg     rms          rms(c)
DAV:   1    -0.137952918802E+04   -0.82771E-03   -0.86135E-02  4928   0.194E-01    0.145E-01
DAV:   2    -0.137952899126E+04    0.19676E-03   -0.20997E-03  5056   0.334E-02    0.809E-02
DAV:   3    -0.137952892018E+04    0.71087E-04   -0.81499E-04  5216   0.201E-02    0.278E-02
DAV:   4    -0.137952890852E+04    0.11655E-04   -0.83381E-05  5248   0.634E-03    0.172E-02
DAV:   5    -0.137952890678E+04    0.17392E-05   -0.20353E-05  5440   0.334E-03    0.365E-03
DAV:   6    -0.137952890675E+04    0.31912E-07   -0.19374E-06  4992   0.107E-03    0.131E-03
DAV:   7    -0.137952890693E+04   -0.17614E-06   -0.34080E-07  5184   0.470E-04    0.666E-04
DAV:   8    -0.137952890715E+04   -0.22007E-06   -0.35893E-08  3968   0.195E-04    0.348E-04
DAV:   9    -0.137952890746E+04   -0.31413E-06   -0.25593E-08  4032   0.147E-04    0.174E-04
DAV:  10    -0.137952890774E+04   -0.27759E-06   -0.10426E-08  3520   0.101E-04    0.115E-04
DAV:  11    -0.137952890801E+04   -0.27119E-06   -0.11241E-08  3632   0.832E-05    0.798E-05
DAV:  12    -0.137952890820E+04   -0.19421E-06   -0.78189E-09  3328   0.846E-05    0.450E-05
DAV:  13    -0.137952890834E+04   -0.13656E-06   -0.67369E-09  3328   0.815E-05    0.397E-05
DAV:  14    -0.137952890840E+04   -0.55050E-07   -0.21992E-09  3072   0.657E-05    0.252E-05
DAV:  15    -0.137952890846E+04   -0.66284E-07   -0.29615E-09  3168   0.556E-05    0.240E-05
DAV:  16    -0.137952890848E+04   -0.20635E-07   -0.46458E-10  3072   0.391E-05    0.186E-05
DAV:  17    -0.137952890850E+04   -0.20213E-07   -0.69546E-11  3072   0.306E-05    0.153E-05
DAV:  18    -0.137952890852E+04   -0.15032E-07    0.14835E-10  3072   0.247E-05    0.167E-05
DAV:  19    -0.137952890852E+04   -0.53114E-08    0.56348E-10  3072   0.161E-05
  40 F= -.13990204E+04 E0= -.13990204E+04  d E =-.468956E-03  mag=    -0.0000
       N       E                     dE             d eps       ncg     rms          rms(c)
DAV:   1    -0.137952911015E+04   -0.20164E-03   -0.74702E-02  4928   0.193E-01    0.901E-02
DAV:   2    -0.137952911792E+04   -0.77642E-05   -0.83805E-04  5280   0.187E-02    0.541E-02
DAV:   3    -0.137952910960E+04    0.83232E-05   -0.23363E-04  5312   0.102E-02    0.147E-02
DAV:   4    -0.137952910564E+04    0.39529E-05   -0.23942E-05  4704   0.338E-03    0.869E-03
DAV:   5    -0.137952910497E+04    0.66993E-06   -0.10335E-05  4768   0.224E-03    0.171E-03
DAV:   6    -0.137952910503E+04   -0.55734E-07   -0.75046E-07  4544   0.669E-04    0.893E-04
DAV:   7    -0.137952910507E+04   -0.44325E-07   -0.90946E-08  4608   0.253E-04    0.431E-04
DAV:   8    -0.137952910518E+04   -0.10249E-06   -0.35805E-08  3840   0.162E-04    0.236E-04
DAV:   9    -0.137952910528E+04   -0.10400E-06   -0.83491E-09  3392   0.953E-05    0.103E-04
DAV:  10    -0.137952910538E+04   -0.10377E-06   -0.64398E-09  3264   0.840E-05    0.829E-05
DAV:  11    -0.137952910547E+04   -0.83601E-07   -0.39233E-09  3152   0.759E-05    0.539E-05
DAV:  12    -0.137952910553E+04   -0.66124E-07   -0.51727E-09  3232   0.955E-05    0.287E-05
DAV:  13    -0.137952910556E+04   -0.29424E-07   -0.26016E-09  3072   0.801E-05    0.349E-05
DAV:  14    -0.137952910558E+04   -0.22454E-07   -0.10102E-09  3072   0.438E-05    0.193E-05
DAV:  15    -0.137952910560E+04   -0.12908E-07   -0.23521E-10  3072   0.296E-05    0.121E-05
DAV:  16    -0.137952910560E+04   -0.40454E-08    0.39292E-10  2944   0.190E-05
  41 F= -.13990207E+04 E0= -.13990207E+04  d E =-.362859E-03  mag=    -0.0000
       N       E                     dE             d eps       ncg     rms          rms(c)
DAV:   1    -0.137952841507E+04    0.69053E-03   -0.75986E-02  4960   0.185E-01    0.981E-02
DAV:   2    -0.137952836916E+04    0.45913E-04   -0.73919E-04  5184   0.188E-02    0.567E-02
DAV:   3    -0.137952835585E+04    0.13309E-04   -0.31360E-04  5408   0.119E-02    0.167E-02
DAV:   4    -0.137952834999E+04    0.58560E-05   -0.33710E-05  5280   0.424E-03    0.995E-03
DAV:   5    -0.137952834944E+04    0.55798E-06   -0.11730E-05  5504   0.252E-03    0.195E-03
DAV:   6    -0.137952834947E+04   -0.34619E-07   -0.75024E-07  4992   0.743E-04    0.957E-04
DAV:   7    -0.137952834955E+04   -0.81360E-07   -0.13291E-07  4832   0.290E-04    0.512E-04
DAV:   8    -0.137952834965E+04   -0.96756E-07   -0.23642E-08  3808   0.169E-04    0.230E-04
DAV:   9    -0.137952834974E+04   -0.95795E-07   -0.87094E-09  3520   0.110E-04    0.123E-04
DAV:  10    -0.137952834983E+04   -0.87923E-07   -0.35493E-09  3072   0.734E-05    0.792E-05
DAV:  11    -0.137952834993E+04   -0.10087E-06   -0.45041E-09  3168   0.753E-05    0.477E-05
DAV:  12    -0.137952835000E+04   -0.68321E-07   -0.33817E-09  3072   0.753E-05    0.327E-05
DAV:  13    -0.137952835005E+04   -0.50568E-07   -0.29809E-09  3104   0.806E-05    0.266E-05
DAV:  14    -0.137952835008E+04   -0.31941E-07   -0.22700E-09  3072   0.712E-05    0.158E-05
DAV:  15    -0.137952835010E+04   -0.13781E-07   -0.61600E-10  2944   0.441E-05    0.121E-05
DAV:  16    -0.137952835011E+04   -0.13228E-07   -0.22502E-10  3072   0.270E-05    0.943E-06
DAV:  17    -0.137952835011E+04   -0.35943E-08    0.31944E-10  2944   0.186E-05
  42 F= -.13990199E+04 E0= -.13990199E+04  d E =0.820695E-03  mag=     0.0000
       N       E                     dE             d eps       ncg     rms          rms(c)
DAV:   1    -0.137952915827E+04   -0.80816E-03   -0.86617E-02  5056   0.194E-01    0.144E-01
DAV:   2    -0.137952894832E+04    0.20995E-03   -0.18330E-03  5184   0.314E-02    0.822E-02
DAV:   3    -0.137952888969E+04    0.58627E-04   -0.10720E-03  5248   0.218E-02    0.305E-02
DAV:   4    -0.137952886939E+04    0.20309E-04   -0.11908E-04  5216   0.759E-03    0.183E-02
DAV:   5    -0.137952886761E+04    0.17708E-05   -0.25801E-05  6048   0.389E-03    0.442E-03
DAV:   6    -0.137952886734E+04    0.27323E-06   -0.34910E-06  5152   0.145E-03    0.120E-03
DAV:   7    -0.137952886749E+04   -0.15255E-06   -0.46428E-07  4704   0.514E-04    0.113E-03
DAV:   8    -0.137952886770E+04   -0.20901E-06   -0.51698E-08  4064   0.246E-04    0.580E-04
DAV:   9    -0.137952886798E+04   -0.28148E-06   -0.49701E-08  4064   0.218E-04    0.223E-04
DAV:  10    -0.137952886820E+04   -0.21384E-06   -0.10381E-08  3584   0.101E-04    0.199E-04
DAV:  11    -0.137952886851E+04   -0.31215E-06   -0.14296E-08  3776   0.103E-04    0.859E-05
DAV:  12    -0.137952886871E+04   -0.19811E-06   -0.79069E-09  3520   0.793E-05    0.101E-04
DAV:  13    -0.137952886884E+04   -0.13015E-06   -0.45880E-09  3168   0.704E-05    0.497E-05
DAV:  14    -0.137952886893E+04   -0.87079E-07   -0.36158E-09  3104   0.686E-05    0.328E-05
DAV:  15    -0.137952886898E+04   -0.56229E-07   -0.22866E-09  3072   0.556E-05    0.251E-05
DAV:  16    -0.137952886902E+04   -0.42157E-07   -0.15859E-09  3088   0.445E-05    0.145E-05
[...]
DAV:  11    -0.137952678576E+04   -0.40825E-06   -0.15360E-08  3904   0.125E-04    0.763E-05
DAV:  12    -0.137952678608E+04   -0.32339E-06   -0.10091E-08  3616   0.100E-04    0.512E-05
DAV:  13    -0.137952678631E+04   -0.22764E-06   -0.80301E-09  3488   0.936E-05    0.326E-05
DAV:  14    -0.137952678640E+04   -0.88650E-07   -0.32138E-09  3072   0.835E-05    0.224E-05
DAV:  15    -0.137952678646E+04   -0.67186E-07   -0.22179E-09  3072   0.619E-05    0.138E-05
DAV:  16    -0.137952678650E+04   -0.35943E-07   -0.85308E-10  3072   0.438E-05    0.105E-05
DAV:  17    -0.137952678652E+04   -0.16240E-07   -0.60512E-11  3072   0.314E-05    0.750E-06
DAV:  18    -0.137952678653E+04   -0.10186E-07    0.33603E-10  3072   0.219E-05    0.522E-06
DAV:  19    -0.137952678653E+04   -0.33906E-08    0.60600E-10  3072   0.136E-05
  60 F= -.13990183E+04 E0= -.13990183E+04  d E =0.530215E-03  mag=    -0.0000
       N       E                     dE             d eps       ncg     rms          rms(c)
DAV:   1    -0.137952743855E+04   -0.65203E-03   -0.49229E-01  4928   0.567E-01    0.136E-01
DAV:   2    -0.137952750680E+04   -0.68247E-04   -0.32432E-03  5248   0.440E-02    0.869E-02
DAV:   3    -0.137952740356E+04    0.10324E-03   -0.49960E-04  5472   0.174E-02    0.187E-02
DAV:   4    -0.137952740925E+04   -0.56901E-05   -0.70820E-05  6176   0.490E-03    0.774E-03
DAV:   5    -0.137952740851E+04    0.73282E-06   -0.89677E-06  5568   0.245E-03    0.313E-03
DAV:   6    -0.137952740936E+04   -0.84349E-06   -0.12613E-06  5376   0.111E-03    0.154E-03
DAV:   7    -0.137952741051E+04   -0.11482E-05   -0.28092E-07  4768   0.498E-04    0.626E-04
DAV:   8    -0.137952741167E+04   -0.11679E-05   -0.10558E-07  5024   0.289E-04    0.394E-04
DAV:   9    -0.137952741295E+04   -0.12718E-05   -0.45188E-08  4160   0.205E-04    0.245E-04
DAV:  10    -0.137952741438E+04   -0.14353E-05   -0.60389E-08  4128   0.174E-04    0.167E-04
DAV:  11    -0.137952741531E+04   -0.92473E-06   -0.38201E-08  4160   0.167E-04    0.122E-04
DAV:  12    -0.137952741580E+04   -0.49076E-06   -0.12163E-08  3712   0.108E-04    0.101E-04
DAV:  13    -0.137952741614E+04   -0.34587E-06   -0.75911E-09  3360   0.894E-05    0.512E-05
DAV:  14    -0.137952741637E+04   -0.23186E-06   -0.59441E-09  3360   0.763E-05    0.406E-05
DAV:  15    -0.137952741648E+04   -0.11003E-06   -0.22569E-09  3072   0.686E-05    0.258E-05
DAV:  16    -0.137952741654E+04   -0.57684E-07   -0.19528E-09  3072   0.723E-05    0.198E-05
DAV:  17    -0.137952741657E+04   -0.25437E-07   -0.70494E-10  3072   0.480E-05    0.223E-05
DAV:  18    -0.137952741658E+04   -0.16371E-07    0.13638E-10  3072   0.258E-05    0.109E-05
DAV:  19    -0.137952741659E+04   -0.65775E-08    0.34763E-10  3072   0.213E-05
  61 F= -.13990187E+04 E0= -.13990187E+04  d E =-.347693E-03  mag=     0.0000
       N       E                     dE             d eps       ncg     rms          rms(c)
DAV:   1    -0.137952736227E+04    0.54317E-04   -0.48747E-01  5056   0.578E-01    0.139E-01
DAV:   2    -0.137952758235E+04   -0.22008E-03   -0.49091E-03  5312   0.543E-02    0.881E-02
DAV:   3    -0.137952746655E+04    0.11580E-03   -0.53762E-04  5488   0.177E-02    0.340E-02
DAV:   4    -0.137952747065E+04   -0.41020E-05   -0.12105E-04  5680   0.732E-03    0.119E-02
DAV:   5    -0.137952746886E+04    0.17911E-05   -0.20912E-05  5888   0.335E-03    0.508E-03
DAV:   6    -0.137952746928E+04   -0.42334E-06   -0.27932E-06  5504   0.120E-03    0.206E-03
DAV:   7    -0.137952746966E+04   -0.37548E-06   -0.36838E-07  4544   0.563E-04    0.749E-04
DAV:   8    -0.137952747007E+04   -0.41648E-06   -0.11690E-07  4672   0.306E-04    0.300E-04
DAV:   9    -0.137952747036E+04   -0.28194E-06   -0.15449E-08  3840   0.144E-04    0.192E-04
DAV:  10    -0.137952747083E+04   -0.47806E-06   -0.21006E-08  4000   0.156E-04    0.122E-04
DAV:  11    -0.137952747114E+04   -0.30771E-06   -0.10410E-08  3616   0.118E-04    0.842E-05
DAV:  12    -0.137952747140E+04   -0.25793E-06   -0.84522E-09  3456   0.990E-05    0.657E-05
DAV:  13    -0.137952747157E+04   -0.17107E-06   -0.48435E-09  3232   0.769E-05    0.523E-05
DAV:  14    -0.137952747173E+04   -0.15496E-06   -0.58357E-09  3296   0.742E-05    0.349E-05
DAV:  15    -0.137952747179E+04   -0.61584E-07   -0.17268E-09  3072   0.519E-05    0.252E-05
DAV:  16    -0.137952747182E+04   -0.34779E-07   -0.82653E-10  3072   0.363E-05    0.164E-05
DAV:  17    -0.137952747185E+04   -0.26965E-07   -0.11785E-10  3072   0.295E-05    0.114E-05
DAV:  18    -0.137952747187E+04   -0.22221E-07    0.17942E-10  3072   0.258E-05    0.778E-06
DAV:  19    -0.137952747188E+04   -0.76834E-08    0.36336E-10  3072   0.222E-05
  62 F= -.13990191E+04 E0= -.13990191E+04  d E =-.388104E-03  mag=    -0.0000
       N       E                     dE             d eps       ncg     rms          rms(c)
DAV:   1    -0.137952682037E+04    0.65150E-03   -0.48524E-01  4992   0.565E-01    0.140E-01
DAV:   2    -0.137952694215E+04   -0.12178E-03   -0.42383E-03  5248   0.491E-02    0.832E-02
DAV:   3    -0.137952683899E+04    0.10316E-03   -0.56915E-04  5472   0.175E-02    0.288E-02
DAV:   4    -0.137952684133E+04   -0.23414E-05   -0.84160E-05  5728   0.604E-03    0.117E-02
DAV:   5    -0.137952684021E+04    0.11234E-05   -0.16216E-05  5088   0.274E-03    0.393E-03
DAV:   6    -0.137952684093E+04   -0.72301E-06   -0.17487E-06  4976   0.947E-04    0.161E-03
DAV:   7    -0.137952684171E+04   -0.77969E-06   -0.27230E-07  4384   0.432E-04    0.529E-04
DAV:   8    -0.137952684236E+04   -0.64999E-06   -0.77421E-08  4480   0.218E-04    0.266E-04
DAV:   9    -0.137952684294E+04   -0.57925E-06   -0.22406E-08  3904   0.125E-04    0.170E-04
DAV:  10    -0.137952684360E+04   -0.65834E-06   -0.24889E-08  3936   0.110E-04    0.107E-04
DAV:  11    -0.137952684414E+04   -0.54318E-06   -0.24294E-08  3936   0.121E-04    0.704E-05
DAV:  12    -0.137952684445E+04   -0.30576E-06   -0.11063E-08  3520   0.110E-04    0.545E-05
DAV:  13    -0.137952684467E+04   -0.21941E-06   -0.93554E-09  3456   0.104E-04    0.337E-05
DAV:  14    -0.137952684477E+04   -0.95082E-07   -0.30594E-09  3104   0.791E-05    0.244E-05
DAV:  15    -0.137952684483E+04   -0.60158E-07   -0.16058E-09  3072   0.562E-05    0.139E-05
DAV:  16    -0.137952684487E+04   -0.43015E-07   -0.78654E-10  3072   0.473E-05    0.151E-05
DAV:  17    -0.137952684488E+04   -0.16036E-07    0.22179E-12  3072   0.323E-05    0.111E-05
DAV:  18    -0.137952684490E+04   -0.13868E-07    0.26135E-10  3072   0.240E-05    0.909E-06
DAV:  19    -0.137952684490E+04   -0.47439E-08    0.53820E-10  3072   0.144E-05
  63 F= -.13990185E+04 E0= -.13990185E+04  d E =0.591903E-03  mag=    -0.0000
       N       E                     dE             d eps       ncg     rms          rms(c)
DAV:   1    -0.137952698659E+04   -0.14170E-03   -0.49147E-01  4992   0.569E-01    0.137E-01
DAV:   2    -0.137952704618E+04   -0.59588E-04   -0.34031E-03  5280   0.439E-02    0.872E-02
DAV:   3    -0.137952693600E+04    0.11018E-03   -0.54734E-04  5440   0.175E-02    0.181E-02
DAV:   4    -0.137952694020E+04   -0.42085E-05   -0.60007E-05  6016   0.473E-03    0.792E-03
DAV:   5    -0.137952693901E+04    0.11997E-05   -0.86878E-06  5216   0.219E-03    0.297E-03
DAV:   6    -0.137952693963E+04   -0.61974E-06   -0.10538E-06  4960   0.797E-04    0.151E-03
DAV:   7    -0.137952694076E+04   -0.11370E-05   -0.35610E-07  4336   0.493E-04    0.592E-04
DAV:   8    -0.137952694175E+04   -0.98369E-06   -0.83480E-08  4640   0.254E-04    0.387E-04
DAV:   9    -0.137952694306E+04   -0.13100E-05   -0.44522E-08  4096   0.164E-04    0.257E-04
DAV:  10    -0.137952694466E+04   -0.16051E-05   -0.75429E-08  4128   0.202E-04    0.151E-04
DAV:  11    -0.137952694558E+04   -0.91523E-06   -0.35021E-08  4032   0.151E-04    0.111E-04
DAV:  12    -0.137952694619E+04   -0.61425E-06   -0.16772E-08  3680   0.122E-04    0.764E-05
DAV:  13    -0.137952694661E+04   -0.42324E-06   -0.11997E-08  3552   0.114E-04    0.420E-05
DAV:  14    -0.137952694682E+04   -0.20608E-06   -0.69109E-09  3296   0.131E-04    0.303E-05
DAV:  15    -0.137952694692E+04   -0.10410E-06   -0.42048E-09  3264   0.104E-04    0.233E-05
DAV:  16    -0.137952694698E+04   -0.56738E-07   -0.10759E-09  3072   0.516E-05    0.141E-05
DAV:  17    -0.137952694702E+04   -0.39654E-07   -0.58114E-10  3072   0.395E-05    0.110E-05
DAV:  18    -0.137952694703E+04   -0.83237E-08    0.15547E-10  3072   0.273E-05
  64 F= -.13990183E+04 E0= -.13990183E+04  d E =0.209521E-03  mag=    -0.0000
       N       E                     dE             d eps       ncg     rms          rms(c)
DAV:   1    -0.137952742242E+04   -0.47540E-03   -0.50842E-01  4992   0.601E-01    0.139E-01
DAV:   2    -0.137952764255E+04   -0.22013E-03   -0.51929E-03  5312   0.553E-02    0.891E-02
DAV:   3    -0.137952751887E+04    0.12368E-03   -0.58626E-04  5376   0.183E-02    0.301E-02
DAV:   4    -0.137952752206E+04   -0.31956E-05   -0.88171E-05  5760   0.672E-03    0.105E-02
DAV:   5    -0.137952752064E+04    0.14233E-05   -0.18064E-05  5728   0.343E-03    0.420E-03
DAV:   6    -0.137952752090E+04   -0.26323E-06   -0.18551E-06  5376   0.114E-03    0.195E-03
DAV:   7    -0.137952752123E+04   -0.32911E-06   -0.52622E-07  4768   0.685E-04    0.664E-04
DAV:   8    -0.137952752153E+04   -0.30275E-06   -0.11872E-07  4752   0.336E-04    0.297E-04
DAV:   9    -0.137952752180E+04   -0.27049E-06   -0.19521E-08  3904   0.150E-04    0.210E-04
DAV:  10    -0.137952752220E+04   -0.39142E-06   -0.17561E-08  3808   0.157E-04    0.111E-04
DAV:  11    -0.137952752252E+04   -0.32180E-06   -0.14466E-08  3616   0.132E-04    0.800E-05
DAV:  12    -0.137952752270E+04   -0.18046E-06   -0.68371E-09  3296   0.908E-05    0.607E-05
DAV:  13    -0.137952752284E+04   -0.14096E-06   -0.50618E-09  3328   0.724E-05    0.421E-05
DAV:  14    -0.137952752294E+04   -0.10389E-06   -0.42574E-09  3200   0.619E-05    0.247E-05
DAV:  15    -0.137952752298E+04   -0.34677E-07   -0.11764E-09  3072   0.455E-05    0.196E-05
DAV:  16    -0.137952752300E+04   -0.21042E-07   -0.29276E-10  3072   0.307E-05    0.178E-05
DAV:  17    -0.137952752302E+04   -0.20271E-07    0.39409E-11  3072   0.301E-05    0.103E-05
DAV:  18    -0.137952752303E+04   -0.15192E-07    0.10246E-10  3072   0.285E-05    0.139E-05
DAV:  19    -0.137952752304E+04   -0.72177E-08    0.43966E-10  3072   0.182E-05
  65 F= -.13990191E+04 E0= -.13990191E+04  d E =-.822405E-03  mag=    -0.0000
       N       E                     dE             d eps       ncg     rms          rms(c)
DAV:   1    -0.137952670102E+04    0.82202E-03   -0.47996E-01  4992   0.557E-01    0.138E-01
DAV:   2    -0.137952684362E+04   -0.14261E-03   -0.43637E-03  5312   0.509E-02    0.834E-02
DAV:   3    -0.137952675103E+04    0.92595E-04   -0.56498E-04  5568   0.173E-02    0.295E-02
DAV:   4    -0.137952675368E+04   -0.26461E-05   -0.89532E-05  5952   0.690E-03    0.117E-02
DAV:   5    -0.137952675295E+04    0.72760E-06   -0.15039E-05  5856   0.300E-03    0.461E-03
DAV:   6    -0.137952675355E+04   -0.60424E-06   -0.15392E-06  5632   0.111E-03    0.188E-03
DAV:   7    -0.137952675418E+04   -0.62321E-06   -0.34793E-07  4992   0.626E-04    0.633E-04
DAV:   8    -0.137952675460E+04   -0.42388E-06   -0.85449E-08  4736   0.285E-04    0.322E-04
DAV:   9    -0.137952675505E+04   -0.44565E-06   -0.23495E-08  4032   0.159E-04    0.198E-04
DAV:  10    -0.137952675546E+04   -0.41926E-06   -0.11292E-08  3744   0.106E-04    0.120E-04
DAV:  11    -0.137952675601E+04   -0.54319E-06   -0.24993E-08  4032   0.125E-04    0.937E-05
DAV:  12    -0.137952675631E+04   -0.30447E-06   -0.10993E-08  3744   0.994E-05    0.570E-05
DAV:  13    -0.137952675649E+04   -0.17427E-06   -0.54873E-09  3296   0.815E-05    0.602E-05
DAV:  14    -0.137952675657E+04   -0.84940E-07   -0.25400E-09  3072   0.680E-05    0.412E-05
DAV:  15    -0.137952675662E+04   -0.47221E-07   -0.20324E-09  3072   0.652E-05    0.192E-05
DAV:  16    -0.137952675665E+04   -0.31010E-07   -0.12470E-09  3072   0.503E-05    0.265E-05
DAV:  17    -0.137952675667E+04   -0.15716E-07   -0.76741E-11  3072   0.312E-05    0.215E-05
DAV:  18    -0.137952675667E+04   -0.75670E-08    0.30508E-10  3072   0.268E-05
  66 F= -.13990185E+04 E0= -.13990185E+04  d E =0.630878E-03  mag=     0.0000
       N       E                     dE             d eps       ncg     rms          rms(c)
DAV:   1    -0.137952679744E+04   -0.40771E-04   -0.49221E-01  4992   0.559E-01    0.136E-01
DAV:   2    -0.137952684853E+04   -0.51095E-04   -0.32786E-03  5312   0.439E-02    0.872E-02
DAV:   3    -0.137952674797E+04    0.10056E-03   -0.53681E-04  5696   0.184E-02    0.183E-02
DAV:   4    -0.137952675493E+04   -0.69605E-05   -0.81858E-05  6208   0.567E-03    0.777E-03
DAV:   5    -0.137952675423E+04    0.70650E-06   -0.68880E-06  5568   0.218E-03    0.361E-03
DAV:   6    -0.137952675453E+04   -0.30789E-06   -0.12791E-06  5760   0.105E-03    0.147E-03
DAV:   7    -0.137952675509E+04   -0.55248E-06   -0.31840E-07  5024   0.598E-04    0.524E-04
DAV:   8    -0.137952675558E+04   -0.49525E-06   -0.50336E-08  4640   0.243E-04    0.339E-04
DAV:   9    -0.137952675630E+04   -0.72124E-06   -0.38438E-08  4176   0.192E-04    0.214E-04
DAV:  10    -0.137952675684E+04   -0.53670E-06   -0.19931E-08  4064   0.142E-04    0.123E-04
DAV:  11    -0.137952675738E+04   -0.54455E-06   -0.21499E-08  4096   0.126E-04    0.980E-05
DAV:  12    -0.137952675767E+04   -0.28698E-06   -0.64954E-09  3360   0.855E-05    0.686E-05
DAV:  13    -0.137952675795E+04   -0.27765E-06   -0.10202E-08  3648   0.925E-05    0.610E-05
DAV:  14    -0.137952675807E+04   -0.11867E-06   -0.30720E-09  3072   0.747E-05    0.467E-05
DAV:  15    -0.137952675813E+04   -0.65033E-07   -0.22480E-09  3072   0.607E-05    0.241E-05
DAV:  16    -0.137952675818E+04   -0.45067E-07   -0.17056E-09  3072   0.609E-05    0.248E-05
DAV:  17    -0.137952675819E+04   -0.13955E-07   -0.61219E-10  3072   0.434E-05    0.212E-05
DAV:  18    -0.137952675819E+04   -0.27212E-08    0.21597E-10  2944   0.261E-05
  67 F= -.13990181E+04 E0= -.13990181E+04  d E =0.308528E-03  mag=     0.0000
       N       E                     dE             d eps       ncg     rms          rms(c)
DAV:   1    -0.137952757833E+04   -0.82014E-03   -0.48519E-01  5120   0.556E-01    0.134E-01
DAV:   2    -0.137952769507E+04   -0.11673E-03   -0.47912E-03  5472   0.506E-02    0.893E-02
DAV:   3    -0.137952755126E+04    0.14381E-03   -0.84971E-04  5760   0.272E-02    0.233E-02
DAV:   4    -0.137952756064E+04   -0.93784E-05   -0.15263E-04  5952   0.100E-02    0.120E-02
DAV:   5    -0.137952756081E+04   -0.16956E-06   -0.13455E-05  5664   0.314E-03    0.536E-03
DAV:   6    -0.137952756160E+04   -0.79024E-06   -0.18386E-06  6256   0.158E-03    0.228E-03
DAV:   7    -0.137952756249E+04   -0.88944E-06   -0.48844E-07  6080   0.794E-04    0.773E-04
DAV:   8    -0.137952756328E+04   -0.79232E-06   -0.12449E-07  5184   0.450E-04    0.463E-04
DAV:   9    -0.137952756386E+04   -0.58199E-06   -0.36485E-08  4480   0.280E-04    0.270E-04
DAV:  10    -0.137952756470E+04   -0.83593E-06   -0.40940E-08  4384   0.259E-04    0.160E-04
DAV:  11    -0.137952756513E+04   -0.43302E-06   -0.21790E-08  3968   0.174E-04    0.105E-04
DAV:  12    -0.137952756553E+04   -0.40018E-06   -0.14353E-08  3744   0.130E-04    0.773E-05
DAV:  13    -0.137952756576E+04   -0.23220E-06   -0.63475E-09  3264   0.858E-05    0.546E-05
DAV:  14    -0.137952756592E+04   -0.15863E-06   -0.41837E-09  3136   0.697E-05    0.309E-05
DAV:  15    -0.137952756599E+04   -0.73080E-07   -0.19081E-09  3072   0.553E-05    0.299E-05
DAV:  16    -0.137952756606E+04   -0.68918E-07   -0.15113E-09  3072   0.463E-05    0.166E-05
DAV:  17    -0.137952756610E+04   -0.31578E-07   -0.64227E-10  3072   0.405E-05    0.146E-05
DAV:  18    -0.137952756611E+04   -0.16240E-07   -0.98771E-11  3072   0.319E-05    0.121E-05
DAV:  19    -0.137952756612E+04   -0.65193E-08    0.38428E-10  3072   0.207E-05
  68 F= -.13990191E+04 E0= -.13990191E+04  d E =-.929843E-03  mag=    -0.0000
       N       E                     dE             d eps       ncg     rms          rms(c)
DAV:   1    -0.137952731260E+04    0.25351E-03   -0.48395E-01  5120   0.536E-01    0.142E-01
DAV:   2    -0.137952735489E+04   -0.42285E-04   -0.47165E-03  5376   0.490E-02    0.818E-02
DAV:   3    -0.137952722925E+04    0.12564E-03   -0.79883E-04  5472   0.213E-02    0.260E-02
DAV:   4    -0.137952723569E+04   -0.64431E-05   -0.13597E-04  5824   0.735E-03    0.125E-02
DAV:   5    -0.137952723434E+04    0.13493E-05   -0.16655E-05  5664   0.312E-03    0.493E-03
DAV:   6    -0.137952723465E+04   -0.30792E-06   -0.14978E-06  6048   0.121E-03    0.186E-03
DAV:   7    -0.137952723502E+04   -0.37006E-06   -0.27709E-07  5440   0.596E-04    0.681E-04
DAV:   8    -0.137952723550E+04   -0.48272E-06   -0.97900E-08  5024   0.378E-04    0.375E-04
DAV:   9    -0.137952723593E+04   -0.42435E-06   -0.25592E-08  3968   0.222E-04    0.232E-04
DAV:  10    -0.137952723653E+04   -0.60287E-06   -0.30421E-08  4160   0.234E-04    0.129E-04
DAV:  11    -0.137952723694E+04   -0.40668E-06   -0.24581E-08  4064   0.179E-04    0.921E-05
DAV:  12    -0.137952723722E+04   -0.27780E-06   -0.10511E-08  3680   0.111E-04    0.671E-05
DAV:  13    -0.137952723743E+04   -0.20953E-06   -0.55498E-09  3264   0.751E-05    0.393E-05
DAV:  14    -0.137952723756E+04   -0.13846E-06   -0.42266E-09  3072   0.631E-05    0.252E-05
DAV:  15    -0.137952723764E+04   -0.72672E-07   -0.23124E-09  3072   0.520E-05    0.186E-05
DAV:  16    -0.137952723769E+04   -0.51412E-07   -0.13110E-09  3072   0.416E-05    0.120E-05
DAV:  17    -0.137952723773E+04   -0.37529E-07   -0.83177E-10  3072   0.360E-05    0.783E-06
DAV:  18    -0.137952723774E+04   -0.11743E-07    0.88972E-11  3072   0.257E-05    0.697E-06
DAV:  19    -0.137952723774E+04   -0.58499E-08    0.42165E-10  2944   0.164E-05
  69 F= -.13990188E+04 E0= -.13990188E+04  d E =0.268375E-03  mag=    -0.0000
       N       E                     dE             d eps       ncg     rms          rms(c)
DAV:   1    -0.137952870321E+04   -0.14655E-02   -0.49456E-01  5120   0.511E-01    0.145E-01
DAV:   2    -0.137952853232E+04    0.17089E-03   -0.40605E-03  5472   0.477E-02    0.863E-02
DAV:   3    -0.137952837398E+04    0.15834E-03   -0.11008E-03  5760   0.262E-02    0.219E-02
DAV:   4    -0.137952838309E+04   -0.91059E-05   -0.18605E-04  5792   0.917E-03    0.120E-02
DAV:   5    -0.137952838245E+04    0.64183E-06   -0.20030E-05  5568   0.374E-03    0.483E-03
DAV:   6    -0.137952838252E+04   -0.69544E-07   -0.24907E-06  6432   0.190E-03    0.276E-03
DAV:   7    -0.137952838285E+04   -0.33532E-06   -0.49859E-07  5760   0.102E-03    0.949E-04
DAV:   8    -0.137952838361E+04   -0.75449E-06   -0.21771E-07  5536   0.703E-04    0.567E-04
DAV:   9    -0.137952838432E+04   -0.71179E-06   -0.63234E-08  4672   0.344E-04    0.369E-04
DAV:  10    -0.137952838561E+04   -0.12978E-05   -0.60300E-08  4512   0.380E-04    0.195E-04
DAV:  11    -0.137952838633E+04   -0.71703E-06   -0.45112E-08  4384   0.252E-04    0.153E-04
DAV:  12    -0.137952838702E+04   -0.68324E-06   -0.26509E-08  3968   0.182E-04    0.991E-05
DAV:  13    -0.137952838752E+04   -0.50539E-06   -0.20741E-08  3936   0.129E-04    0.660E-05
DAV:  14    -0.137952838774E+04   -0.22398E-06   -0.51751E-09  3264   0.697E-05    0.437E-05
DAV:  15    -0.137952838786E+04   -0.11311E-06   -0.20852E-09  3136   0.510E-05    0.293E-05
DAV:  16    -0.137952838800E+04   -0.14178E-06   -0.36246E-09  3136   0.623E-05    0.201E-05
DAV:  17    -0.137952838804E+04   -0.37573E-07   -0.11258E-09  3072   0.455E-05    0.179E-05
DAV:  18    -0.137952838807E+04   -0.29002E-07   -0.38427E-10  3072   0.316E-05    0.824E-06
DAV:  19    -0.137952838808E+04   -0.17069E-07    0.33609E-12  3072   0.255E-05    0.756E-06
DAV:  20    -0.137952838809E+04   -0.34634E-08    0.49853E-10  2944   0.164E-05
  70 F= -.13990200E+04 E0= -.13990200E+04  d E =-.117759E-02  mag=     0.0000
