       N       E                     dE             d eps       ncg     rms          rms(c)
DAV:   1    -0.132154910554E+04   -0.13215E+04   -0.13033E+00  6304   0.972E-01    0.955E-01
DAV:   2    -0.132329378048E+04   -0.17447E+01   -0.11606E+00  6112   0.943E-01    0.405E-01
DAV:   3    -0.132330368596E+04   -0.99055E-02   -0.41545E-02  6848   0.225E-01    0.276E-01
DAV:   4    -0.132330372973E+04   -0.43765E-04   -0.20723E-03  5504   0.563E-02    0.224E-01
DAV:   5    -0.132330373988E+04   -0.10153E-04   -0.20063E-04  6656   0.180E-02    0.189E-01
DAV:   6    -0.132330375257E+04   -0.12686E-04   -0.21727E-05  6528   0.698E-03    0.164E-01
DAV:   7    -0.132330376259E+04   -0.10024E-04   -0.24463E-05  6720   0.839E-03    0.129E-01
DAV:   8    -0.132330376886E+04   -0.62630E-05   -0.15552E-05  5952   0.615E-03    0.107E-01
DAV:   9    -0.132330377390E+04   -0.50438E-05   -0.36702E-06  3872   0.318E-03    0.925E-02
DAV:  10    -0.132330378131E+04   -0.74111E-05   -0.29107E-05  6400   0.861E-03    0.523E-02
DAV:  11    -0.132330378623E+04   -0.49181E-05   -0.27906E-05  6784   0.849E-03    0.175E-02
DAV:  12    -0.132330378721E+04   -0.98112E-06   -0.26269E-06  3392   0.251E-03
   1 F= -.13421294E+04 E0= -.13421294E+04  d E =-.871506E-22  mag=     0.0000
