 vasp.5.4.4.18Apr17-6-g9f103f2a35 (build Oct 13 2017 11:24:24) complex          
  
 executed on             LinuxIFC date 2021.11.07  13:20:12
 running on   48 total cores
 distrk:  each k-point on   48 cores,    1 groups
 distr:  one band on NCORES_PER_BAND=   6 cores,    8 groups


--------------------------------------------------------------------------------------------------------


 INCAR:
 POTCAR:    PAW_PBE Zr_sv 04Jan2005               
 POTCAR:    PAW_PBE O 08Apr2002                   
 POTCAR:    PAW_PBE H 15Jun2001                   
 POTCAR:    PAW_PBE C 08Apr2002                   
 POTCAR:    PAW_PBE Zr_sv 04Jan2005               
   VRHFIN =Zr: 4s4p5s4d                                                         
   LEXCH  = PE                                                                  
   EATOM  =  1284.2219 eV,   94.3876 Ry                                         
                                                                                
   TITEL  = PAW_PBE Zr_sv 04Jan2005                                             
   LULTRA =        F    use ultrasoft PP ?                                      
   IUNSCR =        1    unscreen: 0-lin 1-nonlin 2-no                           
   RPACOR =    2.200    partial core radius                                     
   POMASS =   91.224; ZVAL   =   12.000    mass and valenz                      
   RCORE  =    2.500    outmost cutoff radius                                   
   RWIGS  =    3.070; RWIGS  =    1.625    wigner-seitz radius (au A)           
   ENMAX  =  229.898; ENMIN  =  172.424 eV                                      
   ICORE  =        3    local potential                                         
   LCOR   =        T    correct aug charges                                     
   LPAW   =        T    paw PP                                                  
   EAUG   =  461.257                                                            
   DEXC   =    0.000                                                            
   RMAX   =    2.561    core radius for proj-oper                               
   RAUG   =    1.300    factor for augmentation sphere                          
   RDEP   =    2.597    radius for radial grids                                 
   RDEPT  =    2.007    core radius for aug-charge                              
                                                                                
   Atomic configuration                                                         
   11 entries                                                                   
     n  l   j            E        occ.                                          
     1  0  0.50    -17820.0161   2.0000                                         
     2  0  0.50     -2467.0882   2.0000                                         
     2  1  1.50     -2199.6095   6.0000                                         
     3  0  0.50      -402.4863   2.0000                                         
     3  1  1.50      -315.3675   6.0000                                         
     3  2  2.50      -172.4472  10.0000                                         
     4  0  0.50       -52.4146   2.0000                                         
     5  0  0.50        -3.8421   1.0000                                         
     4  1  1.50       -30.5054   6.0000                                         
     4  2  2.50        -2.3341   3.0000                                         
     4  3  2.50        -1.3606   0.0000                                         
   Description                                                                  
     l       E           TYP  RCUT    TYP  RCUT                                 
     0    -52.4145962     23  2.200                                             
     0     -3.8421270     23  2.500                                             
     1    -30.5053914     23  2.200                                             
     1     20.4087390     23  2.200                                             
     2     -2.3340816     23  2.500                                             
     2     -0.6120942     23  2.500                                             
     3     -4.0817478     23  2.500                                             
  local pseudopotential read in
  partial core-charges read in
  partial kinetic energy density read in
  atomic valenz-charges read in
  non local Contribution for L=           0  read in
    real space projection operators read in
  non local Contribution for L=           0  read in
    real space projection operators read in
  non local Contribution for L=           1  read in
    real space projection operators read in
  non local Contribution for L=           1  read in
    real space projection operators read in
  non local Contribution for L=           2  read in
    real space projection operators read in
  non local Contribution for L=           2  read in
    real space projection operators read in
    PAW grid and wavefunctions read in
 
   number of l-projection  operators is LMAX  =           6
   number of lm-projection operators is LMMAX =          18
 
 POTCAR:    PAW_PBE O 08Apr2002                   
   VRHFIN =O: s2p4                                                              
   LEXCH  = PE                                                                  
   EATOM  =   432.3788 eV,   31.7789 Ry                                         
                                                                                
   TITEL  = PAW_PBE O 08Apr2002                                                 
   LULTRA =        F    use ultrasoft PP ?                                      
   IUNSCR =        1    unscreen: 0-lin 1-nonlin 2-no                           
   RPACOR =    1.200    partial core radius                                     
   POMASS =   16.000; ZVAL   =    6.000    mass and valenz                      
   RCORE  =    1.520    outmost cutoff radius                                   
   RWIGS  =    1.550; RWIGS  =    0.820    wigner-seitz radius (au A)           
   ENMAX  =  400.000; ENMIN  =  300.000 eV                                      
   ICORE  =        2    local potential                                         
   LCOR   =        T    correct aug charges                                     
   LPAW   =        T    paw PP                                                  
   EAUG   =  605.392                                                            
   DEXC   =    0.000                                                            
   RMAX   =    1.553    core radius for proj-oper                               
   RAUG   =    1.300    factor for augmentation sphere                          
   RDEP   =    1.550    radius for radial grids                                 
   RDEPT  =    1.329    core radius for aug-charge                              
                                                                                
   Atomic configuration                                                         
    4 entries                                                                   
     n  l   j            E        occ.                                          
     1  0  0.50      -514.6923   2.0000                                         
     2  0  0.50       -23.9615   2.0000                                         
     2  1  0.50        -9.0305   4.0000                                         
     3  2  1.50        -9.5241   0.0000                                         
   Description                                                                  
     l       E           TYP  RCUT    TYP  RCUT                                 
     0    -23.9615318     23  1.200                                             
     0     -9.5240782     23  1.200                                             
     1     -9.0304911     23  1.520                                             
     1      8.1634956     23  1.520                                             
     2     -9.5240782      7  1.500                                             
  local pseudopotential read in
  partial core-charges read in
  partial kinetic energy density read in
  kinetic energy density of atom read in
  atomic valenz-charges read in
  non local Contribution for L=           0  read in
    real space projection operators read in
  non local Contribution for L=           0  read in
    real space projection operators read in
  non local Contribution for L=           1  read in
    real space projection operators read in
  non local Contribution for L=           1  read in
    real space projection operators read in
    PAW grid and wavefunctions read in
 
   number of l-projection  operators is LMAX  =           4
   number of lm-projection operators is LMMAX =           8
 
 POTCAR:    PAW_PBE H 15Jun2001                   
   VRHFIN =H: ultrasoft test                                                    
   LEXCH  = PE                                                                  
   EATOM  =    12.4884 eV,    0.9179 Ry                                         
                                                                                
   TITEL  = PAW_PBE H 15Jun2001                                                 
   LULTRA =        F    use ultrasoft PP ?                                      
   IUNSCR =        0    unscreen: 0-lin 1-nonlin 2-no                           
   RPACOR =    0.000    partial core radius                                     
   POMASS =    1.000; ZVAL   =    1.000    mass and valenz                      
   RCORE  =    1.100    outmost cutoff radius                                   
   RWIGS  =    0.700; RWIGS  =    0.370    wigner-seitz radius (au A)           
   ENMAX  =  250.000; ENMIN  =  200.000 eV                                      
   RCLOC  =    0.701    cutoff for local pot                                    
   LCOR   =        T    correct aug charges                                     
   LPAW   =        T    paw PP                                                  
   EAUG   =  400.000                                                            
   RMAX   =    1.123    core radius for proj-oper                               
   RAUG   =    1.200    factor for augmentation sphere                          
   RDEP   =    1.112    radius for radial grids                                 
   RDEPT  =    0.926    core radius for aug-charge                              
                                                                                
   Atomic configuration                                                         
    2 entries                                                                   
     n  l   j            E        occ.                                          
     1  0  0.50        -6.4927   1.0000                                         
     2  1  0.50        -3.4015   0.0000                                         
   Description                                                                  
     l       E           TYP  RCUT    TYP  RCUT                                 
     0     -6.4927494     23  1.100                                             
     0      6.8029130     23  1.100                                             
     1     -4.0817478     23  1.100                                             
  local pseudopotential read in
  atomic valenz-charges read in
  non local Contribution for L=           0  read in
    real space projection operators read in
  non local Contribution for L=           0  read in
    real space projection operators read in
  non local Contribution for L=           1  read in
    real space projection operators read in
    PAW grid and wavefunctions read in
 
   number of l-projection  operators is LMAX  =           3
   number of lm-projection operators is LMMAX =           5
 
 POTCAR:    PAW_PBE C 08Apr2002                   
   VRHFIN =C: s2p2                                                              
   LEXCH  = PE                                                                  
   EATOM  =   147.1560 eV,   10.8157 Ry                                         
                                                                                
   TITEL  = PAW_PBE C 08Apr2002                                                 
   LULTRA =        F    use ultrasoft PP ?                                      
   IUNSCR =        1    unscreen: 0-lin 1-nonlin 2-no                           
   RPACOR =    1.200    partial core radius                                     
   POMASS =   12.011; ZVAL   =    4.000    mass and valenz                      
   RCORE  =    1.500    outmost cutoff radius                                   
   RWIGS  =    1.630; RWIGS  =    0.863    wigner-seitz radius (au A)           
   ENMAX  =  400.000; ENMIN  =  300.000 eV                                      
   ICORE  =        2    local potential                                         
   LCOR   =        T    correct aug charges                                     
   LPAW   =        T    paw PP                                                  
   EAUG   =  644.873                                                            
   DEXC   =    0.000                                                            
   RMAX   =    1.529    core radius for proj-oper                               
   RAUG   =    1.300    factor for augmentation sphere                          
   RDEP   =    1.501    radius for radial grids                                 
   RDEPT  =    1.300    core radius for aug-charge                              
                                                                                
   Atomic configuration                                                         
    4 entries                                                                   
     n  l   j            E        occ.                                          
     1  0  0.50      -273.3789   2.0000                                         
     2  0  0.50       -13.7508   2.0000                                         
     2  1  0.50        -5.2854   2.0000                                         
     3  2  1.50        -5.4423   0.0000                                         
   Description                                                                  
     l       E           TYP  RCUT    TYP  RCUT                                 
     0    -13.7508458     23  1.200                                             
     0     -8.2022199     23  1.200                                             
     1     -5.2854383     23  1.500                                             
     1     34.0145650     23  1.500                                             
     2     -5.4423304      7  1.500                                             
  local pseudopotential read in
  partial core-charges read in
  partial kinetic energy density read in
  atomic valenz-charges read in
  non local Contribution for L=           0  read in
    real space projection operators read in
  non local Contribution for L=           0  read in
    real space projection operators read in
  non local Contribution for L=           1  read in
    real space projection operators read in
  non local Contribution for L=           1  read in
    real space projection operators read in
    PAW grid and wavefunctions read in
 
   number of l-projection  operators is LMAX  =           4
   number of lm-projection operators is LMMAX =           8
 
 Optimization of the real space projectors (new method)

 maximal supplied QI-value         = 15.12
 optimisation between [QCUT,QGAM] = [ 11.34, 22.83] = [ 36.00,145.93] Ry 
 Optimized for a Real-space Cutoff    1.47 Angstroem

   l    n(q)    QCUT    max X(q) W(low)/X(q) W(high)/X(q)  e(spline) 
   0     10    11.338    12.107    0.38E-04    0.13E-04    0.27E-07
   0     10    11.338     9.948    0.69E-04    0.30E-04    0.38E-07
   1     10    11.338     3.563    0.26E-04    0.18E-04    0.40E-07
   1     10    11.338     4.524    0.25E-03    0.39E-04    0.44E-06
   2      9    11.338    87.261    0.26E-03    0.91E-05    0.26E-06
   2      9    11.338    70.950    0.25E-03    0.91E-05    0.25E-06
 Optimization of the real space projectors (new method)

 maximal supplied QI-value         = 24.76
 optimisation between [QCUT,QGAM] = [ 11.39, 22.77] = [ 36.31,145.25] Ry 
 Optimized for a Real-space Cutoff    1.00 Angstroem

   l    n(q)    QCUT    max X(q) W(low)/X(q) W(high)/X(q)  e(spline) 
   0      7    11.387    20.381    0.39E-03    0.13E-02    0.15E-06
   0      7    11.387    15.268    0.42E-03    0.14E-02    0.17E-06
   1      6    11.387     5.964    0.41E-03    0.11E-02    0.17E-06
   1      6    11.387     5.382    0.39E-03    0.87E-03    0.15E-06
 Optimization of the real space projectors (new method)

 maximal supplied QI-value         = 34.20
 optimisation between [QCUT,QGAM] = [ 11.29, 22.57] = [ 35.68,142.71] Ry 
 Optimized for a Real-space Cutoff    1.16 Angstroem

   l    n(q)    QCUT    max X(q) W(low)/X(q) W(high)/X(q)  e(spline) 
   0      8    11.287    19.460    0.40E-03    0.73E-03    0.16E-06
   0      8    11.287    12.209    0.38E-03    0.70E-03    0.15E-06
   1      7    11.287     4.655    0.22E-03    0.25E-04    0.22E-06
 Optimization of the real space projectors (new method)

 maximal supplied QI-value         = 25.13
 optimisation between [QCUT,QGAM] = [ 11.31, 22.87] = [ 35.82,146.48] Ry 
 Optimized for a Real-space Cutoff    1.00 Angstroem

   l    n(q)    QCUT    max X(q) W(low)/X(q) W(high)/X(q)  e(spline) 
   0      7    11.310   115.676    0.43E-03    0.13E-02    0.19E-06
   0      7    11.310    87.132    0.43E-03    0.13E-02    0.18E-06
   1      6    11.310     4.429    0.42E-03    0.74E-03    0.11E-06
   1      6    11.310     2.733    0.34E-03    0.55E-03    0.92E-07
  PAW_PBE Zr_sv 04Jan2005               :
 energy of atom  1       EATOM=-1284.2219
 kinetic energy error for atom=    0.0049 (will be added to EATOM!!)
  PAW_PBE O 08Apr2002                   :
 energy of atom  2       EATOM= -432.3788
 kinetic energy error for atom=    0.0224 (will be added to EATOM!!)
  PAW_PBE H 15Jun2001                   :
 energy of atom  3       EATOM=  -12.4884
 kinetic energy error for atom=    0.0020 (will be added to EATOM!!)
  PAW_PBE C 08Apr2002                   :
 energy of atom  4       EATOM= -147.1560
 kinetic energy error for atom=    0.0076 (will be added to EATOM!!)
 
 
 POSCAR: CONTCAR-propene_1                       
  positions in direct lattice
  velocities in cartesian coordinates
  No initial velocities read in
 exchange correlation table for  LEXCH =        8
   RHO(1)=    0.500       N(1)  =     2000
   RHO(2)=  100.500       N(2)  =     4000
 


--------------------------------------------------------------------------------------------------------


 ion  position               nearest neighbor table
   1  0.088  0.321  0.038-  78 2.10  62 2.10  50 2.18  74 2.19  61 2.26  54 2.30  16 3.37   6 3.50
                            12 3.52  13 3.65
   2  0.338  0.821  0.038-  79 2.10  63 2.10  51 2.18  75 2.19  58 2.26  55 2.30  13 3.37   7 3.50
                             9 3.52  14 3.65
   3  0.588  0.321  0.038-  80 2.10  64 2.10  52 2.18  76 2.19  59 2.26  56 2.30  14 3.37   8 3.50
                            10 3.52  15 3.65
   4  0.838  0.821  0.038-  81 2.10  65 2.10  53 2.18  77 2.19  60 2.26  57 2.30  15 3.37   5 3.50
                            11 3.52  16 3.65
   5  0.070  0.834  0.049-  82 2.07  66 2.10  65 2.18  58 2.19  57 2.22  70 2.30  12 3.37  17 3.46
                             4 3.50  16 3.52   9 3.65
   6  0.320  0.334  0.049-  83 2.06  67 2.10  62 2.18  59 2.19  54 2.22  71 2.30   9 3.37  18 3.48
                             1 3.50  13 3.52  10 3.65
   7  0.570  0.834  0.049-  84 2.06  68 2.10  63 2.18  60 2.19  55 2.22  72 2.30  10 3.37  19 3.49
                             2 3.50  14 3.52  11 3.65
   8  0.820  0.334  0.049-  85 2.08  69 2.10  64 2.18  61 2.19  56 2.22  73 2.30  11 3.37   3 3.50
                            20 3.51  15 3.52  12 3.65
   9  0.238  0.068  0.057-  62 2.10  86 2.16  67 2.18  70 2.19  75 2.22  58 2.30   6 3.37  17 3.49
                            14 3.50  22 3.51   2 3.52   5 3.65
  10  0.488  0.568  0.057-  63 2.10  87 2.18  68 2.18  71 2.19  76 2.22  59 2.30   7 3.37  18 3.48
                            15 3.50   3 3.52  23 3.53   6 3.65
  11  0.738  0.068  0.057-  64 2.10  69 2.18  88 2.18  72 2.19  77 2.22  60 2.30   8 3.37  19 3.47
                            16 3.50   4 3.52  24 3.53   7 3.65
  12  0.988  0.568  0.057-  65 2.10  66 2.18  89 2.18  73 2.19  74 2.22  61 2.30   5 3.37  13 3.50
                            20 3.51   1 3.52  21 3.52   8 3.65
  13  0.220  0.581  0.068-  51 2.10  66 2.10  79 2.18  54 2.19  90 2.26  71 2.26  74 2.30   2 3.37
                            21 3.49  26 3.50  12 3.50  18 3.50   6 3.52   1 3.65
  14  0.470  0.081  0.068-  52 2.10  67 2.10  80 2.18  55 2.19  72 2.26  91 2.27  75 2.30   3 3.37
                            27 3.48  22 3.49   9 3.50  19 3.52   7 3.52   2 3.65
  15  0.720  0.581  0.068-  53 2.10  68 2.10  81 2.18  56 2.19  73 2.26  92 2.26  76 2.30   4 3.37
                            10 3.50  28 3.50  23 3.50   8 3.52  20 3.53   3 3.65
  16  0.970  0.081  0.068-  50 2.10  69 2.10  78 2.18  57 2.19  70 2.26  93 2.27  77 2.30   1 3.37
                            17 3.50  11 3.50  25 3.50  24 3.51   5 3.52   4 3.65
  17  0.105  0.982  0.171-  94 2.09 110 2.13  82 2.16  70 2.19 106 2.19  93 2.24  86 2.31  32 3.40
                             5 3.46   9 3.49  16 3.50  22 3.53  25 3.54  29 3.67
  18  0.357  0.484  0.171-  95 2.09 111 2.13  83 2.16  71 2.19 107 2.19  90 2.23  87 2.29  29 3.38
                             6 3.48  10 3.48  13 3.50  23 3.51  26 3.54  30 3.65
  19  0.608  0.985  0.172-  96 2.09 112 2.14  84 2.19  72 2.20 108 2.20  91 2.23  88 2.28  30 3.39
                            11 3.47  24 3.48   7 3.49  27 3.51  14 3.52  31 3.68
  20  0.856  0.484  0.173- 113 2.10  97 2.10  85 2.19 109 2.19  73 2.23  92 2.23  89 2.31  31 3.35
                            28 3.49   8 3.51  12 3.51  21 3.52  15 3.53  32 3.63
  21  0.089  0.495  0.182- 114 2.09  98 2.11  97 2.17  90 2.18  74 2.24  89 2.27 102 2.30  25 3.37
                            13 3.49  32 3.51  20 3.52  12 3.52  26 3.62  33 3.65
  22  0.339  0.995  0.182- 115 2.10  99 2.11  94 2.18  91 2.19  75 2.23 103 2.25  86 2.27  26 3.38
                            14 3.49  29 3.51   9 3.51  17 3.53  34 3.60  27 3.63
  23  0.589  0.493  0.183- 100 2.08 116 2.13  95 2.17  92 2.18  76 2.24  87 2.29 104 2.30  27 3.36
                            35 3.49  15 3.50  18 3.51  10 3.53  30 3.56  28 3.69
  24  0.838  0.995  0.183- 101 2.10 117 2.11  96 2.18  93 2.18  77 2.26  88 2.26 105 2.29  28 3.37
                            19 3.48  16 3.51  11 3.53  31 3.54  36 3.61  25 3.65
  25  0.004  0.231  0.191-  78 2.10  97 2.10 121 2.15  98 2.20 105 2.23  93 2.29 106 2.30  21 3.37
                            37 3.44  16 3.50  17 3.54  29 3.55  24 3.65  36 3.67
  26  0.253  0.730  0.191-  94 2.10  79 2.10 102 2.18  99 2.20 118 2.20  90 2.29 107 2.29  22 3.38
                            38 3.46  13 3.50  18 3.54  30 3.54  21 3.62  33 3.64
  27  0.504  0.229  0.191-  80 2.09  95 2.12 119 2.16 100 2.19 103 2.20  91 2.29 108 2.29  23 3.36
                            14 3.48  39 3.49  19 3.51  31 3.57  22 3.63  34 3.65
  28  0.758  0.729  0.191-  81 2.09  96 2.12 101 2.16 120 2.23 109 2.23 104 2.23  92 2.30  24 3.37
                            32 3.48  20 3.49  35 3.50  15 3.50  40 3.60  23 3.69
  29  0.240  0.242  0.200-  98 2.09  83 2.10 122 2.19 103 2.21 111 2.22  86 2.23 106 2.29  18 3.38
                            37 3.41  42 3.51  22 3.51  25 3.55  34 3.62  17 3.67
  30  0.488  0.743  0.200-  99 2.08  84 2.09 112 2.19 123 2.21  87 2.22 104 2.25 107 2.30  19 3.39
                            38 3.45  43 3.49  35 3.49  26 3.54  23 3.56  18 3.65
  31  0.740  0.245  0.204- 100 2.11  85 2.12 113 2.13 105 2.21 124 2.27  88 2.29 108 2.31  20 3.35
                            39 3.50  24 3.54  44 3.54  27 3.57  36 3.63  19 3.68
  32  0.988  0.740  0.203- 101 2.11  82 2.14 110 2.19 102 2.21 125 2.22  89 2.23 109 2.25  17 3.40
                            41 3.46  28 3.48  21 3.51  40 3.55  33 3.62  20 3.63
  33  0.123  0.643  0.314- 142 2.02 126 2.16 138 2.17 114 2.21 125 2.24 118 2.35 102 2.41  45 3.22
                            41 3.47  38 3.54  32 3.62  26 3.64  21 3.65  46 3.69
  34  0.370  0.140  0.312- 143 2.03 127 2.13 139 2.18 115 2.20 122 2.23 119 2.38 103 2.41  46 3.23
                            42 3.49  39 3.51  22 3.60  29 3.62  47 3.64  27 3.65
  35  0.622  0.648  0.305- 140 2.15 123 2.18 116 2.19 104 2.20 128 2.21 144 2.22 120 2.24  49 3.20
                            43 3.43  47 3.46  30 3.49  23 3.49  28 3.50  40 3.57  48 3.71
  36  0.874  0.138  0.314- 145 2.02 129 2.11 141 2.14 117 2.22 124 2.36 105 2.36 121 2.49  48 3.22
                            44 3.38  37 3.55  24 3.61  31 3.63  25 3.67  45 3.80
  37  0.110  0.161  0.312- 130 2.09 121 2.13 122 2.15 106 2.16 129 2.16 134 2.18  29 3.41  25 3.44
                            41 3.45  45 3.48  36 3.55  42 3.59
  38  0.358  0.660  0.313- 131 2.11 126 2.14 107 2.16 135 2.16 123 2.17 118 2.17  42 3.44  30 3.45
                            26 3.46  46 3.54  33 3.54  43 3.58
  39  0.603  0.159  0.316- 136 2.07 132 2.11 127 2.15 124 2.19 108 2.20 119 2.22  43 3.43  47 3.43
                            27 3.49  31 3.50  34 3.51  44 3.80
  40  0.858  0.665  0.322- 146 2.12 133 2.14 137 2.19 120 2.20 125 2.21 128 2.31 109 2.37  49 3.39
                            48 3.45  44 3.48  32 3.55  41 3.57  35 3.57  28 3.60
  41  0.026  0.889  0.324- 110 2.05 137 2.15 138 2.15 129 2.17 130 2.20 125 2.29  37 3.45  32 3.46
                            33 3.47  46 3.50  40 3.57
  42  0.275  0.389  0.325- 111 2.06 139 2.12 126 2.14 134 2.24 131 2.25 122 2.30  38 3.44  47 3.47
                            34 3.49  29 3.51  37 3.59
  43  0.524  0.887  0.325- 112 2.06 127 2.14 140 2.14 132 2.18 135 2.27 123 2.30  39 3.43  35 3.43
                            30 3.49  48 3.55  38 3.58
  44  0.792  0.385  0.330- 147 2.08 141 2.09 133 2.10 113 2.17 124 2.22 128 2.23  49 3.19  45 3.37
                            36 3.38  40 3.48  31 3.54  39 3.80
  45  0.016  0.408  0.336- 142 2.02 114 2.06 133 2.17 141 2.23 134 2.26 121 2.30  33 3.22  44 3.37
                            37 3.48  36 3.80
  46  0.258  0.907  0.336- 143 2.03 115 2.07 130 2.15 138 2.26 118 2.30 135 2.31  34 3.23  41 3.50
                            38 3.54  33 3.69
  47  0.505  0.399  0.335- 136 2.08 116 2.09 131 2.17 119 2.22 139 2.22 144 2.28  39 3.43  35 3.46
                            42 3.47  34 3.64
  48  0.758  0.907  0.337- 145 2.02 117 2.06 132 2.19 137 2.23 120 2.33 140 2.35  36 3.22  40 3.45
                            43 3.55  35 3.71
  49  0.706  0.549  0.414- 147 1.93 146 1.98 144 2.09 128 2.20 155 2.71 156 2.92  44 3.19  35 3.20
                            40 3.39
  50  0.024  0.173  0.000-  16 2.10   1 2.18
  51  0.274  0.673  0.000-  13 2.10   2 2.18
  52  0.524  0.173  0.000-  14 2.10   3 2.18
  53  0.774  0.673  0.000-  15 2.10   4 2.18
  54  0.215  0.432  0.016-  13 2.19   6 2.22   1 2.30
  55  0.465  0.932  0.016-  14 2.19   7 2.22   2 2.30
  56  0.715  0.432  0.016-  15 2.19   8 2.22   3 2.30
  57  0.965  0.932  0.016-  16 2.19   5 2.22   4 2.30
  58  0.207  0.891  0.025-   5 2.19   2 2.26   9 2.30
  59  0.457  0.391  0.025-   6 2.19   3 2.26  10 2.30
  60  0.707  0.891  0.025-   7 2.19   4 2.26  11 2.30
  61  0.957  0.391  0.025-   8 2.19   1 2.26  12 2.30
  62  0.197  0.226  0.044-   9 2.10   1 2.10   6 2.18
  63  0.447  0.726  0.044-  10 2.10   2 2.10   7 2.18
  64  0.697  0.226  0.044-  11 2.10   3 2.10   8 2.18
  65  0.947  0.726  0.044-  12 2.10   4 2.10   5 2.18
  66  0.111  0.675  0.062-   5 2.10  13 2.10  12 2.18
  67  0.361  0.175  0.062-   6 2.10  14 2.10   9 2.18
  68  0.611  0.675  0.062-   7 2.10  15 2.10  10 2.18
  69  0.861  0.175  0.062-   8 2.10  16 2.10  11 2.18
  70  0.101  0.010  0.081-  17 2.19   9 2.19  16 2.26   5 2.30
  71  0.351  0.510  0.081-  18 2.19  10 2.19  13 2.26   6 2.30
  72  0.601  0.010  0.081-  11 2.19  19 2.20  14 2.26   7 2.30
  73  0.851  0.510  0.081-  12 2.19  20 2.23  15 2.26   8 2.30
  74  0.093  0.470  0.090-   1 2.19  12 2.22  21 2.24  13 2.30
  75  0.343  0.970  0.090-   2 2.19   9 2.22  22 2.23  14 2.30
  76  0.593  0.470  0.090-   3 2.19  10 2.22  23 2.24  15 2.30
  77  0.843  0.970  0.090-   4 2.19  11 2.22  24 2.26  16 2.30
  78  0.034  0.229  0.106-   1 2.10  25 2.10  16 2.18
  79  0.284  0.729  0.106-   2 2.10  26 2.10  13 2.18
  80  0.534  0.229  0.106-  27 2.09   3 2.10  14 2.18
  81  0.784  0.729  0.106-  28 2.09   4 2.10  15 2.18
  82  0.045  0.833  0.134-   5 2.07  32 2.14  17 2.16
  83  0.297  0.334  0.133-   6 2.06  29 2.10  18 2.16
  84  0.546  0.834  0.133-   7 2.06  30 2.09  19 2.19
  85  0.796  0.333  0.134-   8 2.08  31 2.12  20 2.19
  86  0.231  0.093  0.146-   9 2.16  29 2.23  22 2.27  17 2.31
  87  0.482  0.594  0.147-  10 2.18  30 2.22  23 2.29  18 2.29
  88  0.732  0.094  0.147-  11 2.18  24 2.26  19 2.28  31 2.29
  89  0.982  0.594  0.147-  12 2.18  32 2.23  21 2.27  20 2.31
  90  0.226  0.552  0.160-  21 2.18  18 2.23  13 2.26  26 2.29
  91  0.476  0.051  0.161-  22 2.19  19 2.23  14 2.27  27 2.29
  92  0.725  0.552  0.161-  23 2.18  20 2.23  15 2.26  28 2.30
  93  0.974  0.053  0.161-  24 2.18  17 2.24  16 2.27  25 2.29
  94  0.215  0.890  0.181-  17 2.09  26 2.10  22 2.18
  95  0.465  0.389  0.180-  18 2.09  27 2.12  23 2.17
  96  0.715  0.889  0.181-  19 2.09  28 2.12  24 2.18
  97  0.966  0.391  0.182-  25 2.10  20 2.10  21 2.17
  98  0.130  0.335  0.192-  29 2.09  21 2.11  25 2.20
  99  0.379  0.835  0.194-  30 2.08  22 2.11  26 2.20
 100  0.629  0.336  0.194-  23 2.08  31 2.11  27 2.19
 101  0.879  0.837  0.194-  24 2.10  32 2.11  28 2.16
 102  0.117  0.672  0.215-  26 2.18  32 2.21  21 2.30  33 2.41
 103  0.367  0.169  0.213-  27 2.20  29 2.21  22 2.25  34 2.41
 104  0.618  0.671  0.214-  35 2.20  28 2.23  30 2.25  23 2.30
 105  0.867  0.170  0.217-  31 2.21  25 2.23  24 2.29  36 2.36
 106  0.116  0.130  0.223-  37 2.16  17 2.19  29 2.29  25 2.30
 107  0.364  0.631  0.224-  38 2.16  18 2.19  26 2.29  30 2.30
 108  0.615  0.131  0.225-  39 2.20  19 2.20  27 2.29  31 2.31
 109  0.864  0.632  0.225-  20 2.19  28 2.23  32 2.25  40 2.37
 110  0.047  0.894  0.240-  41 2.05  17 2.13  32 2.19
 111  0.298  0.396  0.241-  42 2.06  18 2.13  29 2.22
 112  0.548  0.893  0.240-  43 2.06  19 2.14  30 2.19
 113  0.799  0.393  0.240-  20 2.10  31 2.13  44 2.17
 114  0.072  0.493  0.269-  45 2.06  21 2.09  33 2.21
 115  0.313  0.992  0.268-  46 2.07  22 2.10  34 2.20
 116  0.561  0.493  0.269-  47 2.09  23 2.13  35 2.19
 117  0.808  0.994  0.269-  48 2.06  24 2.11  36 2.22
 118  0.251  0.750  0.283-  38 2.17  26 2.20  46 2.30  33 2.35
 119  0.497  0.252  0.280-  27 2.16  39 2.22  47 2.22  34 2.38
 120  0.749  0.747  0.284-  40 2.20  28 2.23  35 2.24  48 2.33
 121  0.007  0.253  0.280-  37 2.13  25 2.15  45 2.30  36 2.49
 122  0.245  0.214  0.290-  37 2.15  29 2.19  34 2.23  42 2.30
 123  0.494  0.712  0.290-  38 2.17  35 2.18  30 2.21  43 2.30
 124  0.741  0.221  0.298-  39 2.19  44 2.22  31 2.27  36 2.36
 125  0.995  0.712  0.294-  40 2.21  32 2.22  33 2.24  41 2.29
 126  0.239  0.555  0.328-  42 2.14  38 2.14  33 2.16
 127  0.484  0.051  0.325-  34 2.13  43 2.14  39 2.15
 128  0.731  0.544  0.324-  49 2.20  35 2.21  44 2.23  40 2.31
 129  0.989  0.057  0.328-  36 2.11  37 2.16  41 2.17
 130  0.146  0.004  0.331-  37 2.09  46 2.15  41 2.20
 131  0.398  0.506  0.337-  38 2.11  47 2.17  42 2.25
 132  0.642  0.001  0.336-  39 2.11  43 2.18  48 2.19
 133  0.901  0.503  0.328-  44 2.10  40 2.14  45 2.17
 134  0.139  0.321  0.352-  37 2.18  42 2.24  45 2.26
 135  0.385  0.819  0.351-  38 2.16  43 2.27  46 2.31
 136  0.598  0.297  0.365-  39 2.07  47 2.08
 137  0.890  0.838  0.344-  41 2.15  40 2.19  48 2.23
 138  0.132  0.801  0.356-  41 2.15  33 2.17  46 2.26
 139  0.379  0.298  0.355-  42 2.12  34 2.18  47 2.22
 140  0.627  0.794  0.355-  43 2.14  35 2.15  48 2.35
 141  0.896  0.294  0.355-  44 2.09  36 2.14  45 2.23
 142  0.069  0.544  0.375-  45 2.02  33 2.02
 143  0.315  0.044  0.374-  46 2.03  34 2.03
 144  0.580  0.545  0.378-  49 2.09  35 2.22  47 2.28
 145  0.815  0.044  0.375-  48 2.02  36 2.02
 146  0.802  0.669  0.403-  49 1.98  40 2.12
 147  0.759  0.411  0.414-  49 1.93  44 2.08
 148  0.732  0.620  0.533- 155 1.09
 149  0.518  0.391  0.552- 154 1.10
 150  0.544  0.367  0.481- 154 1.10
 151  0.500  0.494  0.501- 154 1.10
 152  0.686  0.423  0.534- 156 1.10
 153  0.617  0.652  0.514- 155 1.10
 154  0.545  0.432  0.513- 151 1.10 149 1.10 150 1.10 156 1.49
 155  0.664  0.590  0.522- 148 1.09 153 1.10 156 1.35  49 2.71
 156  0.637  0.481  0.524- 152 1.10 155 1.35 154 1.49  49 2.92
 
  Warning from LATTYP: Monoclinic adjustement (A1->A3, A2->A1, A3->A2)!
  Warning from LATTYP: Got some problem with cell dimensions!
  Tried to take original basis but could not verify dimensions!
  LATTYP: Found a simple monoclinic cell.
 ALAT       =    18.5584556648
 B/A-ratio  =     1.2917238965
 C/A-ratio  =     1.7011970181
 COS(beta)  =    -0.9496615564
  
  Lattice vectors:
  
 A1 = ( -14.0305058395, -12.1474763861,   0.0000000000)
 A2 = (   0.0000000000,   0.0000000000, -23.9724006653)
 A3 = (  29.1411063110,  12.1474763861,   0.0000000000)


Analysis of symmetry for initial positions (statically):
=====================================================================
 Subroutine PRICEL returns:
 Original cell was already a primitive cell.
 

 Routine SETGRP: Setting up the symmetry group for a 
 simple monoclinic supercell.


 Subroutine GETGRP returns: Found  1 space group operations
 (whereof  1 operations were pure point group operations)
 out of a pool of  4 trial point group operations.


The static configuration has the point symmetry C_1 .


Analysis of symmetry for dynamics (positions and initial velocities):
=====================================================================
 Subroutine PRICEL returns:
 Original cell was already a primitive cell.
 

 Routine SETGRP: Setting up the symmetry group for a 
 simple monoclinic supercell.


 Subroutine GETGRP returns: Found  1 space group operations
 (whereof  1 operations were pure point group operations)
 out of a pool of  4 trial point group operations.


The dynamic configuration has the point symmetry C_1 .


Analysis of constrained symmetry for selective dynamics:
=====================================================================
 Subroutine PRICEL returns:
 Original cell was already a primitive cell.
 

 Routine SETGRP: Setting up the symmetry group for a 
 simple monoclinic supercell.


 Subroutine GETGRP returns: Found  1 space group operations
 (whereof  1 operations were pure point group operations)
 out of a pool of  4 trial point group operations.


The constrained configuration has the point symmetry C_1 .


Analysis of structural, dynamic, and magnetic symmetry:
=====================================================================
 Subroutine PRICEL returns:
 Original cell was already a primitive cell.
 

 Routine SETGRP: Setting up the symmetry group for a 
 simple monoclinic supercell.


 Subroutine GETGRP returns: Found  1 space group operations
 (whereof  1 operations were pure point group operations)
 out of a pool of  4 trial point group operations.


The magnetic configuration has the point symmetry C_1 .


 Subroutine INISYM returns: Found  1 space group operations
 (whereof  1 operations are pure point group operations),
 and found     1 'primitive' translations

 
 
 KPOINTS: Monkhorst Pack                          

Automatic generation of k-mesh.
Space group operators:
 irot       det(A)        alpha          n_x          n_y          n_z        tau_x        tau_y        tau_z
    1     1.000000     0.000001     1.000000     0.000000     0.000000     0.000000     0.000000     0.000000
 
 Subroutine IBZKPT returns following result:
 ===========================================
 
 Found      2 irreducible k-points:
 
 Following reciprocal coordinates:
            Coordinates               Weight
  0.250000  0.250000  0.000000      2.000000
 -0.250000  0.250000  0.000000      2.000000
 
 Following cartesian coordinates:
            Coordinates               Weight
  0.016545  0.022051  0.000000      2.000000
 -0.016545  0.019109  0.000000      2.000000
 


--------------------------------------------------------------------------------------------------------




 Dimension of arrays:
   k-points           NKPTS =      2   k-points in BZ     NKDIM =      2   number of bands    NBANDS=    640
   number of dos      NEDOS =    301   number of ions     NIONS =    156
   non local maximal  LDIM  =      6   non local SUM 2l+1 LMDIM =     18
   total plane-waves  NPLWV = 823200
   max r-space proj   IRMAX =   2561   max aug-charges    IRDMAX=   7978
   dimension x,y,z NGX =    84 NGY =   70 NGZ =  140
   dimension x,y,z NGXF=   168 NGYF=  140 NGZF=  280
   support grid    NGXF=   168 NGYF=  140 NGZF=  280
   ions per type =              49  98   6   3
   NGX,Y,Z   is equivalent  to a cutoff of   9.24,  9.54,  9.71 a.u.
   NGXF,Y,Z  is equivalent  to a cutoff of  18.48, 19.08, 19.42 a.u.

 SYSTEM =  mZrO2_n111                              
 POSCAR =  CONTCAR-propene_1                       

 Startparameter for this run:
   NWRITE =      2    write-flag & timer
   PREC   = normal    normal or accurate (medium, high low for compatibility)
   ISTART =      1    job   : 0-new  1-cont  2-samecut
   ICHARG =      1    charge: 1-file 2-atom 10-const
   ISPIN  =      2    spin polarized calculation?
   LNONCOLLINEAR =      F non collinear calculations
   LSORBIT =      F    spin-orbit coupling
   INIWAV =      1    electr: 0-lowe 1-rand  2-diag
   LASPH  =      F    aspherical Exc in radial PAW
   METAGGA=      F    non-selfconsistent MetaGGA calc.

 Electronic Relaxation 1
   ENCUT  =  500.0 eV  36.75 Ry    6.06 a.u.  27.55 22.24 43.71*2*pi/ulx,y,z
   ENINI  =  500.0     initial cutoff
   ENAUG  =  644.9 eV  augmentation charge cutoff
   NELM   =    300;   NELMIN=  2; NELMDL=  0     # of ELM steps 
   EDIFF  = 0.1E-05   stopping-criterion for ELM
   LREAL  =      T    real-space projection
   NLSPLINE    = F    spline interpolate recip. space projectors
   LCOMPAT=      F    compatible to vasp.4.4
   GGA_COMPAT  = T    GGA compatible to vasp.4.4-vasp.4.6
   LMAXPAW     = -100 max onsite density
   LMAXMIX     =    2 max onsite mixed and CHGCAR
   VOSKOWN=      0    Vosko Wilk Nusair interpolation
   ROPT   =   -0.00050  -0.00050  -0.00050  -0.00050
 Ionic relaxation
   EDIFFG = -.2E-01   stopping-criterion for IOM
   NSW    =      0    number of steps for IOM
   NBLOCK =      1;   KBLOCK =      1    inner block; outer block 
   IBRION =     -1    ionic relax: 0-MD 1-quasi-New 2-CG
   NFREE  =      1    steps in history (QN), initial steepest desc. (CG)
   ISIF   =      2    stress and relaxation
   IWAVPR =     10    prediction:  0-non 1-charg 2-wave 3-comb
   ISYM   =      2    0-nonsym 1-usesym 2-fastsym
   LCORR  =      T    Harris-Foulkes like correction to forces

   POTIM  = 0.5000    time-step for ionic-motion
   TEIN   =    0.0    initial temperature
   TEBEG  =    0.0;   TEEND  =   0.0 temperature during run
   SMASS  =  -3.00    Nose mass-parameter (am)
   estimated Nose-frequenzy (Omega)   =  0.10E-29 period in steps =****** mass=  -0.522E-26a.u.
   SCALEE = 1.0000    scale energy and forces
   NPACO  =    256;   APACO  = 16.0  distance and # of slots for P.C.
   PSTRESS=    0.0 pullay stress

  Mass of Ions in am
   POMASS =  91.22 16.00  1.00 12.01
  Ionic Valenz
   ZVAL   =  12.00  6.00  1.00  4.00
  Atomic Wigner-Seitz radii
   RWIGS  =  -1.00 -1.00 -1.00 -1.00
  virtual crystal weights 
   VCA    =   1.00  1.00  1.00  1.00
   NELECT =    1194.0000    total number of electrons
   NUPDOWN=      -1.0000    fix difference up-down

 DOS related values:
   EMIN   =  10.00;   EMAX   =-10.00  energy-range for DOS
   EFERMI =   0.00
   ISMEAR =     0;   SIGMA  =   0.05  broadening in eV -4-tet -1-fermi 0-gaus

 Electronic relaxation 2 (details)
   IALGO  =     38    algorithm
   LDIAG  =      T    sub-space diagonalisation (order eigenvalues)
   LSUBROT=      F    optimize rotation matrix (better conditioning)
   TURBO    =      0    0=normal 1=particle mesh
   IRESTART =      0    0=no restart 2=restart with 2 vectors
   NREBOOT  =      0    no. of reboots
   NMIN     =      0    reboot dimension
   EREF     =   0.00    reference energy to select bands
   IMIX   =      4    mixing-type and parameters
     AMIX     =   0.40;   BMIX     =  1.00
     AMIX_MAG =   1.60;   BMIX_MAG =  1.00
     AMIN     =   0.10
     WC   =   100.;   INIMIX=   1;  MIXPRE=   1;  MAXMIX= -45

 Intra band minimization:
   WEIMIN = 0.0000     energy-eigenvalue tresh-hold
   EBREAK =  0.39E-09  absolut break condition
   DEPER  =   0.30     relativ break condition  

   TIME   =   0.40     timestep for ELM

  volume/ion in A,a.u.               =      28.21       190.35
  Fermi-wavevector in a.u.,A,eV,Ry     =   1.059863  2.002851 15.283562  1.123310
  Thomas-Fermi vector in A             =   2.195224
 
 Write flags
   LWAVE        =      F    write WAVECAR
   LDOWNSAMPLE  =      F    k-point downsampling of WAVECAR
   LCHARG       =      F    write CHGCAR
   LVTOT        =      F    write LOCPOT, total local potential
   LVHAR        =      F    write LOCPOT, Hartree potential only
   LELF         =      F    write electronic localiz. function (ELF)
   LORBIT       =      0    0 simple, 1 ext, 2 COOP (PROOUT), +10 PAW based schemes


 Dipole corrections
   LMONO  =      F    monopole corrections only (constant potential shift)
   LDIPOL =      F    correct potential (dipole corrections)
   IDIPOL =      3    1-x, 2-y, 3-z, 4-all directions 
   EPSILON=  1.0000000 bulk dielectric constant

 LDA+U is selected, type is set to LDAUTYPE =  2
   angular momentum for each species LDAUL =     2   -1   -1   -1
   U (eV)           for each species LDAUU =   4.0  0.0  0.0  0.0
   J (eV)           for each species LDAUJ =   0.0  0.0  0.0  0.0
 Exchange correlation treatment:
   GGA     =    --    GGA type
   LEXCH   =     8    internal setting for exchange type
   VOSKOWN=      0    Vosko Wilk Nusair interpolation
   LHFCALC =     F    Hartree Fock is set to
   LHFONE  =     F    Hartree Fock one center treatment
   AEXX    =    0.0000 exact exchange contribution

 Linear response parameters
   LEPSILON=     F    determine dielectric tensor
   LRPA    =     F    only Hartree local field effects (RPA)
   LNABLA  =     F    use nabla operator in PAW spheres
   LVEL    =     F    velocity operator in full k-point grid
   LINTERFAST=   F  fast interpolation
   KINTER  =     0    interpolate to denser k-point grid
   CSHIFT  =0.1000    complex shift for real part using Kramers Kronig
   OMEGAMAX=  -1.0    maximum frequency
   DEG_THRESHOLD= 0.2000000E-02 threshold for treating states as degnerate
   RTIME   =   -0.100 relaxation time in fs
  (WPLASMAI=    0.000 imaginary part of plasma frequency in eV, 0.658/RTIME)
   DFIELD  = 0.0000000 0.0000000 0.0000000 field for delta impulse in time
 
 Orbital magnetization related:
   ORBITALMAG=     F  switch on orbital magnetization
   LCHIMAG   =     F  perturbation theory with respect to B field
   DQ        =  0.001000  dq finite difference perturbation B field
   LLRAUG    =     F  two centre corrections for induced B field



--------------------------------------------------------------------------------------------------------


 Static calculation
 charge density and potential will be updated during run
 spin polarized calculation
 Variant of blocked Davidson
 Davidson routine will perform the subspace rotation
 perform sub-space diagonalisation
    after iterative eigenvector-optimisation
 modified Broyden-mixing scheme, WC =      100.0
 initial mixing is a Kerker type mixing with AMIX =  0.4000 and BMIX =      1.0000
 Hartree-type preconditioning will be used
 using additional bands           43
 real space projection scheme for non local part
 use partial core corrections
 calculate Harris-corrections to forces 
   (improved forces if not selfconsistent)
 use gradient corrections 
 use of overlap-Matrix (Vanderbilt PP)
 Gauss-broadening in eV      SIGMA  =   0.05


--------------------------------------------------------------------------------------------------------


  energy-cutoff  :      500.00
  volume of cell :     4400.27
      direct lattice vectors                 reciprocal lattice vectors
    15.110600471  0.000000000  0.000000000     0.066178707  0.005884289  0.000000000
    -1.080094632 12.147476386  0.000000000     0.000000000  0.082321625  0.000000000
     0.000000000  0.000000000 23.972400665     0.000000000  0.000000000  0.041714637

  length of vectors
    15.110600471 12.195400238 23.972400665     0.066439793  0.082321625  0.041714637


 
 old parameters found on file WAVECAR:
  energy-cutoff  :      500.00
  volume of cell :     4400.27
      direct lattice vectors                 reciprocal lattice vectors
    15.110600471  0.000000000  0.000000000     0.066178707  0.005884289  0.000000000
    -1.080094632 12.147476386  0.000000000     0.000000000  0.082321625  0.000000000
     0.000000000  0.000000000 23.972400665     0.000000000  0.000000000  0.041714637

  length of vectors

 
 k-points in units of 2pi/SCALE and weight: Monkhorst Pack                          
   0.01654468  0.02205148  0.00000000       0.500
  -0.01654468  0.01910933  0.00000000       0.500
 
 k-points in reciprocal lattice and weights: Monkhorst Pack                          
   0.25000000  0.25000000  0.00000000       0.500
  -0.25000000  0.25000000  0.00000000       0.500
 
 position of ions in fractional coordinates (direct lattice) 
   0.08848000  0.32082999  0.03824000
   0.33847998  0.82083000  0.03824000
   0.58847999  0.32082999  0.03824000
   0.83848001  0.82083000  0.03824000
   0.07020001  0.83354995  0.04873000
   0.32019998  0.33355000  0.04873000
   0.57020004  0.83354995  0.04873000
   0.82020001  0.33355000  0.04873000
   0.23783000  0.06778000  0.05703000
   0.48783004  0.56778001  0.05703000
   0.73783001  0.06778000  0.05703000
   0.98782997  0.56778001  0.05703000
   0.21954999  0.58051001  0.06752000
   0.46955000  0.08051000  0.06752000
   0.71954999  0.58051001  0.06752000
   0.96955000  0.08051000  0.06752000
   0.10547402  0.98245083  0.17086564
   0.35656389  0.48373556  0.17106662
   0.60777727  0.98472319  0.17153393
   0.85615716  0.48382485  0.17264516
   0.08947469  0.49485615  0.18237019
   0.33883748  0.99496452  0.18209362
   0.58891232  0.49267956  0.18250777
   0.83809837  0.99540677  0.18303163
   0.00442306  0.23057691  0.19135567
   0.25291616  0.72994627  0.19129866
   0.50428615  0.22856714  0.19093676
   0.75778990  0.72944752  0.19135402
   0.23955555  0.24185067  0.20032985
   0.48782703  0.74308870  0.19960021
   0.74041674  0.24511432  0.20381040
   0.98790978  0.74011849  0.20281443
   0.12322087  0.64297075  0.31386702
   0.37031016  0.13993989  0.31238576
   0.62182248  0.64756752  0.30452654
   0.87351553  0.13795762  0.31409027
   0.10960389  0.16100353  0.31180304
   0.35805880  0.65971070  0.31276752
   0.60343351  0.15876443  0.31588224
   0.85754300  0.66502434  0.32219043
   0.02631379  0.88937092  0.32433808
   0.27485057  0.38927014  0.32518277
   0.52355111  0.88748630  0.32453554
   0.79178624  0.38509129  0.33044711
   0.01561695  0.40750391  0.33594350
   0.25814158  0.90711565  0.33603479
   0.50476011  0.39852650  0.33529355
   0.75836898  0.90720973  0.33737508
   0.70625663  0.54910296  0.41413223
   0.02440000  0.17254999  0.00000000
   0.27439999  0.67255002  0.00000000
   0.52439999  0.17254999  0.00000000
   0.77439999  0.67255002  0.00000000
   0.21455000  0.43156997  0.01581000
   0.46455001  0.93156996  0.01581000
   0.71455008  0.43156997  0.01581000
   0.96455004  0.93156996  0.01581000
   0.20673000  0.89092997  0.02490000
   0.45673000  0.39092998  0.02490000
   0.70672997  0.89092997  0.02490000
   0.95673004  0.39092998  0.02490000
   0.19748000  0.22610000  0.04418000
   0.44748002  0.72610003  0.04418000
   0.69748003  0.22610000  0.04418000
   0.94747999  0.72610003  0.04418000
   0.11054000  0.67523994  0.06158000
   0.36054002  0.17523999  0.06158000
   0.61053998  0.67523994  0.06158000
   0.86053999  0.17523999  0.06158000
   0.10129000  0.01041000  0.08086000
   0.35129000  0.51041000  0.08086000
   0.60128998  0.01041000  0.08086000
   0.85128994  0.51041000  0.08086000
   0.09348000  0.46976000  0.08995000
   0.34348000  0.96975995  0.08995000
   0.59348001  0.46976000  0.08995000
   0.84347996  0.96975995  0.08995000
   0.03362000  0.22878000  0.10576000
   0.28361999  0.72877998  0.10576000
   0.53361997  0.22878000  0.10576000
   0.78362002  0.72877998  0.10576000
   0.04469114  0.83286084  0.13366894
   0.29663545  0.33391860  0.13340971
   0.54611669  0.83406502  0.13335538
   0.79557711  0.33265362  0.13392080
   0.23144839  0.09328195  0.14606296
   0.48150080  0.59355956  0.14666835
   0.73175733  0.09400074  0.14699079
   0.98185606  0.59351767  0.14679865
   0.22567731  0.55248000  0.16047481
   0.47619213  0.05083291  0.16064295
   0.72504336  0.55191781  0.16075908
   0.97441508  0.05293975  0.16094242
   0.21468201  0.89007430  0.18072501
   0.46478042  0.38945730  0.18033031
   0.71483469  0.88885255  0.18089708
   0.96570851  0.39064339  0.18167916
   0.13045963  0.33510353  0.19158146
   0.37869654  0.83506433  0.19350638
   0.62866485  0.33550543  0.19441742
   0.87930981  0.83697430  0.19437457
   0.11721227  0.67188957  0.21452147
   0.36718151  0.16924657  0.21283192
   0.61802994  0.67052207  0.21366717
   0.86698251  0.17039401  0.21714560
   0.11556800  0.13004669  0.22339749
   0.36386867  0.63083045  0.22419108
   0.61508174  0.13138900  0.22548809
   0.86430145  0.63222158  0.22481774
   0.04698629  0.89354788  0.23985143
   0.29804151  0.39570178  0.24063384
   0.54754537  0.89315259  0.23997712
   0.79925993  0.39327242  0.24016075
   0.07160949  0.49266808  0.26864945
   0.31338063  0.99231927  0.26807713
   0.56068288  0.49307364  0.26936814
   0.80805619  0.99438126  0.26885987
   0.25077086  0.75036850  0.28259550
   0.49734686  0.25193378  0.28023981
   0.74896755  0.74745428  0.28363212
   0.00711934  0.25270163  0.28041842
   0.24508762  0.21448040  0.29038496
   0.49396764  0.71224677  0.29016473
   0.74086281  0.22098486  0.29790892
   0.99456696  0.71248462  0.29405843
   0.23924761  0.55493444  0.32846035
   0.48376408  0.05130653  0.32516704
   0.73064020  0.54397970  0.32362694
   0.98888594  0.05668287  0.32779487
   0.14635204  0.00414172  0.33059683
   0.39756842  0.50569415  0.33738150
   0.64161737  0.00121547  0.33575351
   0.90144989  0.50303663  0.32815741
   0.13886699  0.32070416  0.35201808
   0.38530818  0.81924182  0.35125545
   0.59803677  0.29721701  0.36517122
   0.88974515  0.83838950  0.34372461
   0.13231834  0.80052724  0.35643727
   0.37869306  0.29840128  0.35509223
   0.62701605  0.79440959  0.35459116
   0.89602024  0.29375612  0.35509271
   0.06935707  0.54437068  0.37511342
   0.31534111  0.04352827  0.37436861
   0.57962024  0.54520564  0.37827753
   0.81456252  0.04369626  0.37514372
   0.80150274  0.66940676  0.40302814
   0.75935886  0.41096327  0.41362839
   0.73232769  0.62029752  0.53274228
   0.51849952  0.39105485  0.55165441
   0.54411970  0.36699483  0.48132582
   0.49993550  0.49367474  0.50062160
   0.68618423  0.42323332  0.53352769
   0.61731253  0.65163912  0.51390710
   0.54459952  0.43199821  0.51330829
   0.66423239  0.58989382  0.52177999
   0.63701602  0.48124997  0.52363999
 
 position of ions in cartesian coordinates  (Angst):
   0.99045921  3.89727473  0.91670460
   4.22806168  9.97101307  0.91670460
   8.54575920  3.89727473  0.91670460
  11.78336239  9.97101307  0.91670460
   0.16045142 10.12552833  1.16817511
   4.47814847  4.05179071  1.16817511
   7.71575212 10.12552833  1.16817511
  12.03344917  4.05179071  1.16817511
   3.52054525  0.82335597  1.36714601
   6.75814868  6.89709425  1.36714601
  11.07584571  0.82335597  1.36714601
  14.31344795  6.89709425  1.36714601
   2.69052649  7.05173159  1.61861647
   7.00822400  0.97799331  1.61861647
  10.24582672  7.05173159  1.61861647
  14.56352424  0.97799331  1.61861647
   0.53263595 11.93429827  4.09605952
   4.86541426  5.87616625  4.10087764
   8.12028531 11.96190172  4.11208017
  12.41447215  5.87725089  4.13871905
   0.81752475  6.01125343  4.37185120
   4.04538198 12.08630798  4.36522116
   8.36667820  5.98481333  4.37514946
  11.58903618 12.09168027  4.38770755
  -0.18220972  2.80092756  4.58725481
   3.03330402  8.86700512  4.58588806
   7.37319239  2.77651397  4.57721251
  10.66278806  8.86094656  4.58721532
   3.35860652  2.93787533  4.80238735
   6.56875318  9.02665238  4.78489614
  10.92339484  2.97752036  4.88582447
  14.12851202  8.99057189  4.86194870
   1.16747204  7.81047197  7.52414593
   5.44446056  1.69991646  7.48863668
   8.69667686  7.86631113  7.30023218
  13.05033691  1.67583695  7.52949786
   1.48228160  1.95578655  7.47466730
   4.69793347  8.01382013  7.49778835
   8.94676206  1.92858719  7.57245551
  12.23970042  8.07836742  7.72367813
  -0.56298758 10.80361228  7.77516233
   3.73270859  4.72864980  7.79541168
   6.95260240 10.78071887  7.77989588
  11.54843045  4.67788741  7.92161064
  -0.20416135  4.95014409  8.05337220
   2.92090351 11.01916593  8.05556051
   7.19678205  4.84109127  8.03779131
  10.47953829 11.02030879  8.08769066
  10.07887861  6.67021524  9.92774369
   0.18232835  2.09604693  0.00000000
   3.41993094  8.16978550  0.00000000
   7.73762846  2.09604693  0.00000000
  10.97523117  8.16978550  0.00000000
   2.77584291  5.24248600  0.37900365
   6.01344586 11.31622410  0.37900365
  10.33114434  5.24248600  0.37900365
  13.56874656 11.31622410  0.37900365
   2.16152573 10.82255077  0.59691280
   6.47922326  4.74881268  0.59691280
   9.71682548 10.82255077  0.59691280
  14.03452396  4.74881268  0.59691280
   2.73983193  2.74654436  1.05910064
   5.97743511  8.82028293  1.05910064
  10.29513263  2.74654436  1.05910064
  13.53273487  8.82028293  1.05910064
   0.94100273  8.20246124  1.47622036
   5.25870037  2.12872362  1.47622036
   8.49630260  8.20246124  1.47622036
  12.81400013  2.12872362  1.47622036
   1.51930892  0.12645522  1.93840825
   4.75691175  6.20019341  1.93840825
   9.07460880  0.12645522  1.93840825
  12.31221104  6.20019341  1.93840825
   0.90515363  5.70639848  2.15631746
   4.14275646 11.78013610  2.15631746
   8.46045399  5.70639848  2.15631746
  11.69805622 11.78013610  2.15631746
   0.26091433  2.77909971  2.53532100
   3.49851704  8.85283756  2.53532100
   7.81621408  2.77909971  2.53532100
  11.05381775  8.85283756  2.53532100
  -0.22425862 10.11715733  3.20436533
   4.12167605  4.05626827  3.19815106
   7.35128199 10.13178518  3.19684869
  11.66235048  4.04090201  3.21040302
   3.39657074  1.13314032  3.50147979
   6.63466575  7.21025076  3.51599243
  10.95576290  1.14187179  3.52372211
  14.19537936  7.20974188  3.51911598
   2.81338901  6.71123773  3.84696632
   7.14064472  0.61749163  3.85099728
  10.35971710  6.70440851  3.85378096
  14.66681707  0.64308440  3.85817625
   2.28260958 10.81215650  4.33241225
   6.60246048  4.73092330  4.32295038
   9.84153651 10.79731531  4.33653740
  14.17050357  4.74533140  4.35528565
   1.60937984  4.07066219  4.59266747
   4.82038362 10.14392427  4.63881251
   9.13712582  4.07554429  4.66065230
  12.38288786 10.16712554  4.65962497
   1.04544342  8.16176272  5.14259464
   5.36553076  2.05591872  5.10209206
   8.61457616  8.14515103  5.12211509
  12.91658473  2.06985717  5.20550131
   1.60583912  1.57973915  5.35537415
   4.81691756  7.66299802  5.37439842
   9.15234186  1.59604478  5.40549091
  12.37725473  7.67989665  5.38942098
  -0.25512527 10.85435180  5.74981452
   4.07619087  4.80677800  5.76857075
   7.30904997 10.84954995  5.75282771
  11.65252612  4.77726742  5.75722979
   0.54993431  5.98467391  6.44017219
   3.66357083 12.05417493  6.42645229
   7.93968886  5.98960045  6.45740100
  11.13618836 12.07922284  6.44521659
   2.97882934  9.11508358  6.77449254
   7.24309731  3.06035966  6.71802107
  10.51002809  9.07968321  6.79934294
  -0.16536420  3.06968704  6.72230268
   3.47176191  2.60539558  6.96122465
   6.69485380  8.65200076  6.95594527
  10.95619744  2.68440840  7.14159209
  14.25895314  8.65489007  7.04928649
   3.01579334  6.74105306  7.87398302
   7.25454976  0.62324488  7.79503465
  10.45286264  6.60798053  7.75811462
  14.88143743  0.68855387  7.85803003
   2.20699369  0.05031146  7.92519965
   5.46130004  6.14290769  8.08784441
   9.69391083  0.01476493  8.04881770
  13.07812199  6.11062558  7.86672085
   1.75197275  3.89574627  8.43871848
   4.93737921  9.95172063  8.42043647
   8.71567222  3.61043666  8.75403075
  12.53904347 10.18431667  8.23990415
   1.13476441  9.72438569  8.54465713
   5.39997797  3.62482251  8.51241313
   8.61655150  9.65007171  8.50040127
  13.22211943  3.56839554  8.51242476
   0.46005515  6.61272993  8.99236915
   4.71797888  0.52875867  8.97451434
   8.16953615  6.62287263  9.06822053
  12.26133277  0.53079930  8.99309560
  11.38816497  8.13160284  9.66155204
  11.03048906  4.99216663  9.91566545
  10.39593110  7.53504953 12.77111137
   7.41246281  4.75032953 13.22448043
   7.82558622  4.45806106 11.53853532
   7.02111010  5.99690230 12.00110169
   9.91152374  5.14121672 12.78993964
   8.62413112  7.91577078 12.31958682
   7.76262682  5.24768809 12.30523210
   9.39980916  7.16572126 12.50831895
   9.10589911  5.84597259 12.55290772
 


--------------------------------------------------------------------------------------------------------


 k-point  1 :   0.2500 0.2500 0.0000  plane waves:  111683
 k-point  2 :  -0.2500 0.2500 0.0000  plane waves:  111725

 maximum and minimum number of plane-waves per node :     18644    18587

 maximum number of plane-waves:    111725
 maximum index in each direction: 
   IXMAX=   27   IYMAX=   21   IZMAX=   43
   IXMIN=  -27   IYMIN=  -22   IZMIN=  -43


 real space projection operators:
  total allocation   :      21928.99 KBytes
  max/ min on nodes  :       3663.91       3647.54


 parallel 3D FFT for wavefunctions:
    minimum data exchange during FFTs selected (reduces bandwidth)
 parallel 3D FFT for charge:
    minimum data exchange during FFTs selected (reduces bandwidth)


 total amount of memory used by VASP MPI-rank0   174373. kBytes
=======================================================================

   base      :      30000. kBytes
   nonlr-proj:      11229. kBytes
   fftplans  :       9317. kBytes
   grid      :      26149. kBytes
   one-center:        808. kBytes
   wavefun   :      96870. kBytes
 
     INWAV:  cpu time    8.2977: real time    8.4421
 Broyden mixing: mesh for mixing (old mesh)
   NGX = 55   NGY = 45   NGZ = 87
  (NGX  =168   NGY  =140   NGZ  =280)
  gives a total of 215325 points

 initial charge density was supplied:
 number of electron    1193.9999930 magnetization       0.0000000
 keeping initial charge density in first step


--------------------------------------------------------------------------------------------------------


 Maximum index for non-local projection operator          433
 Maximum index for augmentation-charges          479 (set IRDMAX)


--------------------------------------------------------------------------------------------------------


 First call to EWALD:  gamma=   0.108
 Maximum number of real-space cells 3x 4x 2
 Maximum number of reciprocal cells 3x 2x 4

    FEWALD:  cpu time    0.0048: real time    0.0048


--------------------------------------- Iteration      1(   1)  ---------------------------------------


    POTLOK:  cpu time    0.2232: real time    0.2255
    SETDIJ:  cpu time    0.0218: real time    0.0219
     EDDAV:  cpu time   27.6818: real time   27.7566
       DOS:  cpu time    0.0008: real time    0.0008
    CHARGE:  cpu time    1.2041: real time    1.2071
    MIXING:  cpu time    0.0067: real time    0.0068
    --------------------------------------------
      LOOP:  cpu time   29.1384: real time   29.2187

 eigenvalue-minimisations  :  6304
 total energy-change (2. order) :-0.1321549E+04  (-0.1303315E+00)
 number of electron    1193.9999930 magnetization       0.0000000
 augmentation part       73.5184393 magnetization       0.0000000

 Broyden mixing:
  rms(total) = 0.95501E-01    rms(broyden)= 0.95423E-01
  rms(prec ) = 0.96679E-01
  weight for this iteration     100.00

 Free energy of the ion-electron system (eV)
  ---------------------------------------------------
  alpha Z        PSCENC =      2108.69091937
  Ewald energy   TEWEN  =    392495.21264718
  -Hartree energ DENC   =   -489085.12768708
  -exchange      EXHF   =         0.00000000
  -V(xc)+E(xc)   XCENC  =      5273.22502302
  PAW double counting   =    129356.54422740  -128675.82935958
  entropy T*S    EENTRO =        -0.00000000
  eigenvalues    EBANDS =    -18608.19442712
  atomic energy  EATOM  =    105813.92955126
  Solvation  Ediel_sol  =         0.00000000
  ---------------------------------------------------
  free energy    TOTEN  =     -1321.54910554 eV

  energy without entropy =    -1321.54910554  energy(sigma->0) =    -1321.54910554


--------------------------------------------------------------------------------------------------------




--------------------------------------- Iteration      1(   2)  ---------------------------------------


    POTLOK:  cpu time    0.2157: real time    0.2176
    SETDIJ:  cpu time    0.0245: real time    0.0260
     EDDAV:  cpu time   27.1049: real time   27.1812
       DOS:  cpu time    0.0010: real time    0.0007
    CHARGE:  cpu time    1.2053: real time    1.2086
    MIXING:  cpu time    0.0062: real time    0.0062
    --------------------------------------------
      LOOP:  cpu time   28.5576: real time   28.6403

 eigenvalue-minimisations  :  6112
 total energy-change (2. order) :-0.1744675E+01  (-0.1160607E+00)
 number of electron    1193.9999930 magnetization      -0.0000000
 augmentation part       73.4418227 magnetization       0.0000000

 Broyden mixing:
  rms(total) = 0.40511E-01    rms(broyden)= 0.40396E-01
  rms(prec ) = 0.42560E-01
  weight for this iteration     100.00

 eigenvalues of (default mixing * dielectric matrix)
  average eigenvalue GAMMA=   0.7379
  0.7379

 Free energy of the ion-electron system (eV)
  ---------------------------------------------------
  alpha Z        PSCENC =      2108.69091937
  Ewald energy   TEWEN  =    392495.21264718
  -Hartree energ DENC   =   -489086.81937237
  -exchange      EXHF   =         0.00000000
  -V(xc)+E(xc)   XCENC  =      5273.31931946
  PAW double counting   =    129211.29167136  -128529.52782687
  entropy T*S    EENTRO =        -0.00000000
  eigenvalues    EBANDS =    -18609.39068988
  atomic energy  EATOM  =    105813.92955126
  Solvation  Ediel_sol  =         0.00000000
  ---------------------------------------------------
  free energy    TOTEN  =     -1323.29378048 eV

  energy without entropy =    -1323.29378048  energy(sigma->0) =    -1323.29378048


--------------------------------------------------------------------------------------------------------




--------------------------------------- Iteration      1(   3)  ---------------------------------------


    POTLOK:  cpu time    0.2120: real time    0.2143
    SETDIJ:  cpu time    0.0213: real time    0.0213
     EDDAV:  cpu time   29.7136: real time   29.7904
       DOS:  cpu time    0.0007: real time    0.0007
    CHARGE:  cpu time    1.1952: real time    1.1982
    MIXING:  cpu time    0.0062: real time    0.0062
    --------------------------------------------
      LOOP:  cpu time   31.1491: real time   31.2312

 eigenvalue-minimisations  :  6848
 total energy-change (2. order) :-0.9905481E-02  (-0.4154527E-02)
 number of electron    1193.9999931 magnetization       0.0000000
 augmentation part       73.4731637 magnetization       0.0000000

 Broyden mixing:
  rms(total) = 0.27629E-01    rms(broyden)= 0.27611E-01
  rms(prec ) = 0.28030E-01
  weight for this iteration     100.00

 eigenvalues of (default mixing * dielectric matrix)
  average eigenvalue GAMMA=   0.6934
  0.6934  0.6934

 Free energy of the ion-electron system (eV)
  ---------------------------------------------------
  alpha Z        PSCENC =      2108.69091937
  Ewald energy   TEWEN  =    392495.21264718
  -Hartree energ DENC   =   -489084.28386821
  -exchange      EXHF   =         0.00000000
  -V(xc)+E(xc)   XCENC  =      5273.12640022
  PAW double counting   =    129239.64751381  -128557.14321710
  entropy T*S    EENTRO =        -0.00000000
  eigenvalues    EBANDS =    -18612.48363251
  atomic energy  EATOM  =    105813.92955126
  Solvation  Ediel_sol  =         0.00000000
  ---------------------------------------------------
  free energy    TOTEN  =     -1323.30368596 eV

  energy without entropy =    -1323.30368596  energy(sigma->0) =    -1323.30368596


--------------------------------------------------------------------------------------------------------




--------------------------------------- Iteration      1(   4)  ---------------------------------------


    POTLOK:  cpu time    0.2126: real time    0.2153
    SETDIJ:  cpu time    0.0213: real time    0.0214
     EDDAV:  cpu time   25.0693: real time   25.1343
       DOS:  cpu time    0.0007: real time    0.0006
    CHARGE:  cpu time    1.1949: real time    1.1979
    MIXING:  cpu time    0.0067: real time    0.0067
    --------------------------------------------
      LOOP:  cpu time   26.5054: real time   26.5763

 eigenvalue-minimisations  :  5504
 total energy-change (2. order) :-0.4376515E-04  (-0.2072252E-03)
 number of electron    1193.9999931 magnetization       0.0000000
 augmentation part       73.4688553 magnetization       0.0000000

 Broyden mixing:
  rms(total) = 0.22435E-01    rms(broyden)= 0.22434E-01
  rms(prec ) = 0.22725E-01
  weight for this iteration     100.00

 eigenvalues of (default mixing * dielectric matrix)
  average eigenvalue GAMMA=   0.6872
  0.7734  0.7734  0.5147

 Free energy of the ion-electron system (eV)
  ---------------------------------------------------
  alpha Z        PSCENC =      2108.69091937
  Ewald energy   TEWEN  =    392495.21264718
  -Hartree energ DENC   =   -489084.96192159
  -exchange      EXHF   =         0.00000000
  -V(xc)+E(xc)   XCENC  =      5273.19302649
  PAW double counting   =    129268.83028410  -128586.27257336
  entropy T*S    EENTRO =        -0.00000000
  eigenvalues    EBANDS =    -18611.92566319
  atomic energy  EATOM  =    105813.92955126
  Solvation  Ediel_sol  =         0.00000000
  ---------------------------------------------------
  free energy    TOTEN  =     -1323.30372973 eV

  energy without entropy =    -1323.30372973  energy(sigma->0) =    -1323.30372973


--------------------------------------------------------------------------------------------------------




--------------------------------------- Iteration      1(   5)  ---------------------------------------


    POTLOK:  cpu time    0.2146: real time    0.2162
    SETDIJ:  cpu time    0.0214: real time    0.0214
     EDDAV:  cpu time   29.0125: real time   29.0871
       DOS:  cpu time    0.0006: real time    0.0006
    CHARGE:  cpu time    1.2009: real time    1.2040
    MIXING:  cpu time    0.0069: real time    0.0069
    --------------------------------------------
      LOOP:  cpu time   30.4569: real time   30.5361

 eigenvalue-minimisations  :  6656
 total energy-change (2. order) :-0.1015300E-04  (-0.2006310E-04)
 number of electron    1193.9999930 magnetization       0.0000000
 augmentation part       73.4748948 magnetization       0.0000000

 Broyden mixing:
  rms(total) = 0.18867E-01    rms(broyden)= 0.18867E-01
  rms(prec ) = 0.19113E-01
  weight for this iteration     100.00

 eigenvalues of (default mixing * dielectric matrix)
  average eigenvalue GAMMA=   0.7215
  0.8993  0.8993  0.5437  0.5437

 Free energy of the ion-electron system (eV)
  ---------------------------------------------------
  alpha Z        PSCENC =      2108.69091937
  Ewald energy   TEWEN  =    392495.21264718
  -Hartree energ DENC   =   -489084.98840782
  -exchange      EXHF   =         0.00000000
  -V(xc)+E(xc)   XCENC  =      5273.19714059
  PAW double counting   =    129286.81758680  -128604.22271861
  entropy T*S    EENTRO =        -0.00000000
  eigenvalues    EBANDS =    -18611.94045868
  atomic energy  EATOM  =    105813.92955126
  Solvation  Ediel_sol  =         0.00000000
  ---------------------------------------------------
  free energy    TOTEN  =     -1323.30373988 eV

  energy without entropy =    -1323.30373988  energy(sigma->0) =    -1323.30373988


--------------------------------------------------------------------------------------------------------




--------------------------------------- Iteration      1(   6)  ---------------------------------------


    POTLOK:  cpu time    0.2125: real time    0.2145
    SETDIJ:  cpu time    0.0213: real time    0.0214
     EDDAV:  cpu time   28.6091: real time   28.6824
       DOS:  cpu time    0.0006: real time    0.0006
    CHARGE:  cpu time    1.2086: real time    1.2116
    MIXING:  cpu time    0.0071: real time    0.0071
    --------------------------------------------
      LOOP:  cpu time   30.0592: real time   30.1376

 eigenvalue-minimisations  :  6528
 total energy-change (2. order) :-0.1268578E-04  (-0.2172721E-05)
 number of electron    1193.9999930 magnetization      -0.0000000
 augmentation part       73.4763013 magnetization       0.0000000

 Broyden mixing:
  rms(total) = 0.16400E-01    rms(broyden)= 0.16400E-01
  rms(prec ) = 0.16625E-01
  weight for this iteration     100.00

 eigenvalues of (default mixing * dielectric matrix)
  average eigenvalue GAMMA=   0.8031
  1.1396  1.1396  0.5256  0.6054  0.6054

 Free energy of the ion-electron system (eV)
  ---------------------------------------------------
  alpha Z        PSCENC =      2108.69091937
  Ewald energy   TEWEN  =    392495.21264718
  -Hartree energ DENC   =   -489085.09295889
  -exchange      EXHF   =         0.00000000
  -V(xc)+E(xc)   XCENC  =      5273.20493017
  PAW double counting   =    129300.71016790  -128618.10372177
  entropy T*S    EENTRO =        -0.00000000
  eigenvalues    EBANDS =    -18611.85528780
  atomic energy  EATOM  =    105813.92955126
  Solvation  Ediel_sol  =         0.00000000
  ---------------------------------------------------
  free energy    TOTEN  =     -1323.30375257 eV

  energy without entropy =    -1323.30375257  energy(sigma->0) =    -1323.30375257


--------------------------------------------------------------------------------------------------------




--------------------------------------- Iteration      1(   7)  ---------------------------------------


    POTLOK:  cpu time    0.2129: real time    0.2136
    SETDIJ:  cpu time    0.0212: real time    0.0212
     EDDAV:  cpu time   29.3004: real time   29.3748
       DOS:  cpu time    0.0006: real time    0.0006
    CHARGE:  cpu time    1.1986: real time    1.2016
    MIXING:  cpu time    0.0075: real time    0.0075
    --------------------------------------------
      LOOP:  cpu time   30.7412: real time   30.8194

 eigenvalue-minimisations  :  6720
 total energy-change (2. order) :-0.1002384E-04  (-0.2446318E-05)
 number of electron    1193.9999930 magnetization       0.0000000
 augmentation part       73.4776755 magnetization       0.0000000

 Broyden mixing:
  rms(total) = 0.12900E-01    rms(broyden)= 0.12900E-01
  rms(prec ) = 0.13075E-01
  weight for this iteration     100.00

 eigenvalues of (default mixing * dielectric matrix)
  average eigenvalue GAMMA=   0.8540
  1.3365  1.3365  0.6796  0.6796  0.5457  0.5457

 Free energy of the ion-electron system (eV)
  ---------------------------------------------------
  alpha Z        PSCENC =      2108.69091937
  Ewald energy   TEWEN  =    392495.21264718
  -Hartree energ DENC   =   -489085.11629682
  -exchange      EXHF   =         0.00000000
  -V(xc)+E(xc)   XCENC  =      5273.21086595
  PAW double counting   =    129319.41935810  -128636.79903665
  entropy T*S    EENTRO =        -0.00000000
  eigenvalues    EBANDS =    -18611.85177099
  atomic energy  EATOM  =    105813.92955126
  Solvation  Ediel_sol  =         0.00000000
  ---------------------------------------------------
  free energy    TOTEN  =     -1323.30376259 eV

  energy without entropy =    -1323.30376259  energy(sigma->0) =    -1323.30376259


--------------------------------------------------------------------------------------------------------




--------------------------------------- Iteration      1(   8)  ---------------------------------------


    POTLOK:  cpu time    0.2132: real time    0.2148
    SETDIJ:  cpu time    0.0214: real time    0.0215
     EDDAV:  cpu time   26.6855: real time   26.7686
       DOS:  cpu time    0.0010: real time    0.0006
    CHARGE:  cpu time    1.1922: real time    1.1955
    MIXING:  cpu time    0.0079: real time    0.0079
    --------------------------------------------
      LOOP:  cpu time   28.1212: real time   28.2089

 eigenvalue-minimisations  :  5952
 total energy-change (2. order) :-0.6263013E-05  (-0.1555224E-05)
 number of electron    1193.9999930 magnetization       0.0000000
 augmentation part       73.4790823 magnetization       0.0000000

 Broyden mixing:
  rms(total) = 0.10714E-01    rms(broyden)= 0.10714E-01
  rms(prec ) = 0.10852E-01
  weight for this iteration     100.00

 eigenvalues of (default mixing * dielectric matrix)
  average eigenvalue GAMMA=   0.9047
  1.5634  1.5634  0.7601  0.7601  0.5277  0.5791  0.5791

 Free energy of the ion-electron system (eV)
  ---------------------------------------------------
  alpha Z        PSCENC =      2108.69091937
  Ewald energy   TEWEN  =    392495.21264718
  -Hartree energ DENC   =   -489085.12608552
  -exchange      EXHF   =         0.00000000
  -V(xc)+E(xc)   XCENC  =      5273.21383117
  PAW double counting   =    129331.26755291  -128648.63778627
  entropy T*S    EENTRO =        -0.00000000
  eigenvalues    EBANDS =    -18611.85439896
  atomic energy  EATOM  =    105813.92955126
  Solvation  Ediel_sol  =         0.00000000
  ---------------------------------------------------
  free energy    TOTEN  =     -1323.30376886 eV

  energy without entropy =    -1323.30376886  energy(sigma->0) =    -1323.30376886


--------------------------------------------------------------------------------------------------------




--------------------------------------- Iteration      1(   9)  ---------------------------------------


    POTLOK:  cpu time    0.2126: real time    0.2146
    SETDIJ:  cpu time    0.0212: real time    0.0213
     EDDAV:  cpu time   19.4402: real time   19.4891
       DOS:  cpu time    0.0010: real time    0.0007
    CHARGE:  cpu time    1.1607: real time    1.1638
    MIXING:  cpu time    0.0081: real time    0.0081
    --------------------------------------------
      LOOP:  cpu time   20.8438: real time   20.8976

 eigenvalue-minimisations  :  3872
 total energy-change (2. order) :-0.5043781E-05  (-0.3670167E-06)
 number of electron    1193.9999930 magnetization       0.0000000
 augmentation part       73.4799098 magnetization       0.0000000

 Broyden mixing:
  rms(total) = 0.92518E-02    rms(broyden)= 0.92518E-02
  rms(prec ) = 0.93739E-02
  weight for this iteration     100.00

 eigenvalues of (default mixing * dielectric matrix)
  average eigenvalue GAMMA=   1.0669
  2.1106  2.1106  0.9188  0.9188  0.6612  0.6612  0.5771  0.5771

 Free energy of the ion-electron system (eV)
  ---------------------------------------------------
  alpha Z        PSCENC =      2108.69091937
  Ewald energy   TEWEN  =    392495.21264718
  -Hartree energ DENC   =   -489085.12549615
  -exchange      EXHF   =         0.00000000
  -V(xc)+E(xc)   XCENC  =      5273.21509185
  PAW double counting   =    129339.30437758  -128656.67263368
  entropy T*S    EENTRO =        -0.00000000
  eigenvalues    EBANDS =    -18611.85823133
  atomic energy  EATOM  =    105813.92955126
  Solvation  Ediel_sol  =         0.00000000
  ---------------------------------------------------
  free energy    TOTEN  =     -1323.30377390 eV

  energy without entropy =    -1323.30377390  energy(sigma->0) =    -1323.30377390


--------------------------------------------------------------------------------------------------------




--------------------------------------- Iteration      1(  10)  ---------------------------------------


    POTLOK:  cpu time    0.2125: real time    0.2132
    SETDIJ:  cpu time    0.0213: real time    0.0213
     EDDAV:  cpu time   28.2803: real time   28.3843
       DOS:  cpu time    0.0006: real time    0.0006
    CHARGE:  cpu time    1.1926: real time    1.1955
    MIXING:  cpu time    0.0086: real time    0.0086
    --------------------------------------------
      LOOP:  cpu time   29.7159: real time   29.8234

 eigenvalue-minimisations  :  6400
 total energy-change (2. order) :-0.7411072E-05  (-0.2910748E-05)
 number of electron    1193.9999930 magnetization       0.0000000
 augmentation part       73.4812878 magnetization       0.0000000

 Broyden mixing:
  rms(total) = 0.52268E-02    rms(broyden)= 0.52268E-02
  rms(prec ) = 0.52985E-02
  weight for this iteration     100.00

 eigenvalues of (default mixing * dielectric matrix)
  average eigenvalue GAMMA=   1.1259
  2.4156  2.4156  1.0693  1.0693  0.6911  0.6911  0.5898  0.5958  0.5958

 Free energy of the ion-electron system (eV)
  ---------------------------------------------------
  alpha Z        PSCENC =      2108.69091937
  Ewald energy   TEWEN  =    392495.21264718
  -Hartree energ DENC   =   -489085.12121959
  -exchange      EXHF   =         0.00000000
  -V(xc)+E(xc)   XCENC  =      5273.21883706
  PAW double counting   =    129360.68238580  -128678.04104370
  entropy T*S    EENTRO =        -0.00000000
  eigenvalues    EBANDS =    -18611.87585870
  atomic energy  EATOM  =    105813.92955126
  Solvation  Ediel_sol  =         0.00000000
  ---------------------------------------------------
  free energy    TOTEN  =     -1323.30378131 eV

  energy without entropy =    -1323.30378131  energy(sigma->0) =    -1323.30378131


--------------------------------------------------------------------------------------------------------




--------------------------------------- Iteration      1(  11)  ---------------------------------------


    POTLOK:  cpu time    0.2129: real time    0.2136
    SETDIJ:  cpu time    0.0212: real time    0.0213
     EDDAV:  cpu time   29.5146: real time   29.5887
       DOS:  cpu time    0.0007: real time    0.0006
    CHARGE:  cpu time    1.1976: real time    1.2005
    MIXING:  cpu time    0.0090: real time    0.0091
    --------------------------------------------
      LOOP:  cpu time   30.9561: real time   31.0338

 eigenvalue-minimisations  :  6784
 total energy-change (2. order) :-0.4918111E-05  (-0.2790622E-05)
 number of electron    1193.9999930 magnetization       0.0000000
 augmentation part       73.4832260 magnetization       0.0000000

 Broyden mixing:
  rms(total) = 0.17463E-02    rms(broyden)= 0.17461E-02
  rms(prec ) = 0.17670E-02
  weight for this iteration     100.00

 eigenvalues of (default mixing * dielectric matrix)
  average eigenvalue GAMMA=   1.1537
[...]
   0.623E+02 0.145E+02 -.994E+03   -.622E+02 -.169E+02 0.997E+03   -.630E-01 0.245E+01 -.288E+01   -.836E-04 0.297E-03 -.920E-03
   0.138E+02 0.658E+02 -.104E+04   -.129E+02 -.694E+02 0.104E+04   -.836E+00 0.356E+01 -.231E+01   -.112E-03 -.290E-03 -.506E-03
   -.370E+02 0.214E+02 -.102E+04   0.375E+02 -.251E+02 0.102E+04   -.475E+00 0.373E+01 -.216E+01   -.546E-03 0.153E-03 -.385E-03
   0.323E+02 0.209E+02 -.138E+04   -.364E+02 -.226E+02 0.139E+04   0.403E+01 0.168E+01 -.449E+01   -.481E-04 -.928E-03 -.376E-03
   0.491E+02 0.522E+02 -.133E+04   -.527E+02 -.546E+02 0.133E+04   0.355E+01 0.241E+01 -.324E+01   0.224E-03 -.655E-03 -.563E-03
   0.104E+02 0.665E+02 -.989E+03   -.115E+02 -.696E+02 0.980E+03   0.105E+01 0.311E+01 0.916E+01   0.393E-03 0.107E-03 -.668E-03
   -.108E+02 0.239E+02 -.138E+04   0.879E+01 -.265E+02 0.138E+04   0.199E+01 0.254E+01 -.465E+01   0.788E-04 -.739E-03 -.484E-03
   -.266E+02 -.322E+02 -.139E+04   0.299E+02 0.333E+02 0.139E+04   -.329E+01 -.108E+01 -.308E+01   -.351E-03 0.221E-03 -.106E-02
   0.351E+02 -.415E+02 -.142E+04   -.319E+02 0.426E+02 0.142E+04   -.320E+01 -.110E+01 -.507E+01   -.423E-03 -.565E-04 -.685E-03
   -.129E+02 -.422E+02 -.140E+04   0.173E+02 0.435E+02 0.141E+04   -.439E+01 -.124E+01 -.424E+01   0.303E-04 0.185E-03 -.928E-03
   -.139E+03 -.301E+02 -.122E+04   0.144E+03 0.345E+02 0.122E+04   -.554E+01 -.440E+01 0.302E+00   0.101E-03 0.302E-03 -.626E-03
   -.338E+02 0.571E+01 -.163E+04   0.346E+02 -.322E+01 0.164E+04   -.861E+00 -.249E+01 -.889E+01   0.239E-03 0.132E-03 -.651E-03
   0.168E+02 -.326E+02 -.161E+04   -.164E+02 0.366E+02 0.162E+04   -.432E+00 -.395E+01 -.832E+01   0.243E-03 0.315E-03 -.499E-03
   -.322E+02 0.962E+02 -.161E+04   0.401E+02 -.933E+02 0.163E+04   -.794E+01 -.284E+01 -.136E+02   -.113E-03 -.388E-03 -.509E-03
   -.773E+02 -.106E+03 -.148E+04   0.768E+02 0.109E+03 0.148E+04   0.562E+00 -.371E+01 -.597E+01   0.311E-03 0.169E-03 -.832E-03
   -.327E+02 0.442E+01 -.168E+04   0.341E+02 -.581E+01 0.169E+04   -.136E+01 0.139E+01 -.112E+02   -.730E-03 0.359E-03 -.258E-03
   0.530E+02 0.519E+02 -.164E+04   -.517E+02 -.544E+02 0.165E+04   -.130E+01 0.252E+01 -.116E+02   -.569E-03 0.113E-03 -.566E-03
   0.505E+02 -.745E+02 -.160E+04   -.478E+02 0.738E+02 0.161E+04   -.275E+01 0.782E+00 -.115E+02   -.168E-03 0.315E-03 -.710E-03
   -.104E+03 0.938E+02 -.161E+04   0.107E+03 -.964E+02 0.162E+04   -.330E+01 0.252E+01 -.118E+02   -.656E-04 0.577E-04 -.132E-03
   -.577E+02 -.474E+02 -.182E+04   0.576E+02 0.513E+02 0.183E+04   0.137E+00 -.388E+01 -.184E+02   -.337E-03 -.376E-03 -.126E-02
   0.199E+02 -.336E+02 -.182E+04   -.197E+02 0.376E+02 0.184E+04   -.229E+00 -.400E+01 -.182E+02   -.141E-03 0.420E-04 -.154E-02
   0.252E+03 -.422E+02 -.158E+04   -.263E+03 0.438E+02 0.159E+04   0.108E+02 -.157E+01 -.642E+01   0.392E-04 -.280E-03 -.841E-03
   -.197E+02 -.580E+02 -.180E+04   0.195E+02 0.624E+02 0.182E+04   0.201E+00 -.444E+01 -.184E+02   0.169E-03 -.253E-03 -.155E-02
   -.176E+03 -.234E+03 -.175E+04   0.184E+03 0.247E+03 0.176E+04   -.734E+01 -.129E+02 -.990E+01   0.505E-03 -.545E-03 -.987E-03
   -.140E+03 0.267E+03 -.174E+04   0.147E+03 -.283E+03 0.176E+04   -.646E+01 0.153E+02 -.125E+02   0.209E-03 0.809E-03 -.682E-03
   -.553E+02 -.367E+02 -.219E+03   0.605E+02 0.387E+02 0.220E+03   -.521E+01 -.198E+01 -.147E+01   -.138E-05 -.141E-04 0.246E-04
   0.371E+02 0.367E+02 -.214E+03   -.389E+02 -.392E+02 0.219E+03   0.181E+01 0.250E+01 -.454E+01   0.239E-04 0.110E-04 0.378E-05
   0.214E+02 0.590E+02 -.204E+03   -.211E+02 -.630E+02 0.200E+03   -.272E+00 0.401E+01 0.384E+01   0.660E-05 -.422E-06 0.451E-04
   0.687E+02 -.304E+02 -.206E+03   -.726E+02 0.342E+02 0.204E+03   0.386E+01 -.378E+01 0.158E+01   0.150E-04 -.133E-04 0.324E-04
   -.464E+02 0.511E+02 -.216E+03   0.507E+02 -.549E+02 0.217E+03   -.430E+01 0.376E+01 -.125E+01   -.105E-04 0.261E-04 0.211E-04
   0.466E+02 -.622E+02 -.209E+03   -.506E+02 0.662E+02 0.208E+03   0.404E+01 -.393E+01 0.895E+00   0.271E-04 -.241E-04 0.573E-04
   0.139E+03 0.753E+02 -.839E+03   -.141E+03 -.756E+02 0.838E+03   0.186E+01 0.369E+00 0.661E+00   0.801E-04 -.484E-05 0.155E-03
   -.894E+01 -.145E+03 -.875E+03   0.882E+01 0.147E+03 0.877E+03   0.110E+00 -.139E+01 -.158E+01   0.431E-04 -.910E-04 0.298E-03
   -.942E+01 0.784E+02 -.872E+03   0.898E+01 -.796E+02 0.874E+03   0.430E+00 0.117E+01 -.162E+01   0.731E-04 0.620E-05 0.228E-03
 -----------------------------------------------------------------------------------------------
   0.245E+02 0.151E+02 0.896E+02   0.249E-12 0.142E-12 -.314E-10   -.245E+02 -.153E+02 -.897E+02   0.347E-02 0.116E-02 0.322E-01
 
 
 POSITION                                       TOTAL-FORCE (eV/Angst)
 -----------------------------------------------------------------------------------
      0.99046      3.89727      0.91670        -1.496686     -1.868639     -0.655695
      4.22806      9.97101      0.91670        -1.486911     -1.881048     -0.730010
      8.54576      3.89727      0.91670        -1.347599     -1.903930     -0.722431
     11.78336      9.97101      0.91670        -1.361830     -1.835022     -0.696349
      0.16045     10.12553      1.16818        -0.277860      1.649564      0.437809
      4.47815      4.05179      1.16818        -0.172821      1.717827      0.199580
      7.71575     10.12553      1.16818        -0.085259      1.775971      0.207718
     12.03345      4.05179      1.16818        -0.170412      1.781196      0.555829
      3.52055      0.82336      1.36715        -0.849009     -0.876369      1.563492
      6.75815      6.89709      1.36715        -0.797217     -0.905237      1.575980
     11.07585      0.82336      1.36715        -0.766405     -0.831410      1.741392
     14.31345      6.89709      1.36715        -0.928977     -0.926560      1.766708
      2.69053      7.05173      1.61862         1.477360      0.467757     -2.479076
      7.00822      0.97799      1.61862         1.610553      0.440129     -2.461851
     10.24583      7.05173      1.61862         1.689503      0.397221     -2.382870
     14.56352      0.97799      1.61862         1.484624      0.502824     -2.401102
      0.53264     11.93430      4.09606         0.000447     -0.000129     -0.001212
      4.86541      5.87617      4.10088         0.000471     -0.001858      0.002649
      8.12029     11.96190      4.11208         0.000220      0.004420     -0.000055
     12.41447      5.87725      4.13872        -0.000022      0.006560      0.000216
      0.81752      6.01125      4.37185         0.000172      0.000275     -0.004239
      4.04538     12.08631      4.36522        -0.004658      0.000139      0.002473
      8.36668      5.98481      4.37515        -0.001004      0.002412     -0.000308
     11.58904     12.09168      4.38771         0.002030     -0.001727     -0.000734
     -0.18221      2.80093      4.58725         0.006936     -0.002765      0.002370
      3.03330      8.86701      4.58589        -0.002401      0.000036      0.004193
      7.37319      2.77651      4.57721        -0.002887     -0.000564      0.005503
     10.66279      8.86095      4.58722        -0.001176      0.001882     -0.006318
      3.35861      2.93788      4.80239        -0.004300     -0.004786     -0.001244
      6.56875      9.02665      4.78490         0.002753      0.003182      0.000537
     10.92339      2.97752      4.88582         0.002667     -0.002845      0.006657
     14.12851      8.99057      4.86195         0.004300      0.001595      0.001141
      1.16747      7.81047      7.52415         0.000733      0.002351      0.002569
      5.44446      1.69992      7.48864        -0.003507      0.001006      0.001645
      8.69668      7.86631      7.30023        -0.000438     -0.003812      0.001535
     13.05034      1.67584      7.52950         0.005731     -0.005478     -0.002478
      1.48228      1.95579      7.47467        -0.001435     -0.001205     -0.001040
      4.69793      8.01382      7.49779        -0.005121      0.002728      0.001728
      8.94676      1.92859      7.57246        -0.004667      0.000548      0.002665
     12.23970      8.07837      7.72368         0.005472     -0.004173      0.005079
     -0.56299     10.80361      7.77516         0.006258      0.000359      0.004444
      3.73271      4.72865      7.79541        -0.000354     -0.002645      0.008214
      6.95260     10.78072      7.77990         0.002608     -0.000225     -0.004981
     11.54843      4.67789      7.92161         0.004911      0.006124     -0.004950
     -0.20416      4.95014      8.05337        -0.001547     -0.000088     -0.000997
      2.92090     11.01917      8.05556        -0.003712     -0.004612      0.003014
      7.19678      4.84109      8.03779        -0.003929     -0.000810      0.005118
     10.47954     11.02031      8.08769        -0.000213      0.006561     -0.004421
     10.07888      6.67022      9.92774        -0.000036     -0.010449     -0.003522
      0.18233      2.09605      0.00000         0.272516      0.969620      1.242697
      3.41993      8.16979      0.00000         0.289268      0.994662      1.246964
      7.73763      2.09605      0.00000         0.253283      0.973351      1.254569
     10.97523      8.16979      0.00000         0.243451      0.984835      1.255143
      2.77584      5.24249      0.37900        -0.004878     -0.927253      0.568953
      6.01345     11.31622      0.37900        -0.047346     -0.930351      0.566885
     10.33114      5.24249      0.37900        -0.101161     -0.920173      0.553254
     13.56875     11.31622      0.37900        -0.043043     -0.927154      0.550146
      2.16153     10.82255      0.59691         0.414734      1.205613     -0.201127
      6.47922      4.74881      0.59691         0.384957      1.218086     -0.210031
      9.71683     10.82255      0.59691         0.350656      1.182553     -0.215103
     14.03452      4.74881      0.59691         0.406798      1.180855     -0.226870
      2.73983      2.74654      1.05910         1.187516     -1.028900     -0.439443
      5.97744      8.82028      1.05910         1.155832     -1.050184     -0.418894
     10.29513      2.74654      1.05910         1.114132     -1.034812     -0.475621
     13.53273      8.82028      1.05910         1.138507     -1.022201     -0.481195
      0.94100      8.20246      1.47622        -1.094921     -0.300431     -0.912815
      5.25870      2.12872      1.47622        -1.122889     -0.313321     -0.903379
      8.49630      8.20246      1.47622        -1.192576     -0.310759     -0.905928
     12.81400      2.12872      1.47622        -1.139560     -0.328693     -0.922412
      1.51931      0.12646      1.93841         0.332259     -0.080336      0.212803
      4.75691      6.20019      1.93841         0.421948     -0.005135      0.204281
      9.07461      0.12646      1.93841         0.425522     -0.022385      0.262538
     12.31221      6.20019      1.93841         0.362548     -0.065421      0.291197
      0.90515      5.70640      2.15632        -0.351244      0.336587      0.072725
      4.14276     11.78014      2.15632        -0.349472      0.310947      0.132312
      8.46045      5.70640      2.15632        -0.418644      0.316976      0.206669
     11.69806     11.78014      2.15632        -0.416385      0.322347      0.195822
      0.26091      2.77910      2.53532         0.222881      0.391751      0.444335
      3.49852      8.85284      2.53532         0.243089      0.429240      0.586483
      7.81621      2.77910      2.53532         0.252504      0.399773      0.455378
     11.05382      8.85284      2.53532         0.271389      0.404915      0.558583
     -0.22426     10.11716      3.20437         0.006634     -0.008924     -0.004038
      4.12168      4.05627      3.19815         0.004856      0.001810     -0.000015
      7.35128     10.13179      3.19685        -0.011117     -0.010407      0.004171
     11.66235      4.04090      3.21040        -0.001268     -0.001887     -0.006792
      3.39657      1.13314      3.50148        -0.005554     -0.002891     -0.003931
      6.63467      7.21025      3.51599         0.004523     -0.003456      0.002737
     10.95576      1.14187      3.52372         0.003605      0.003145      0.003340
     14.19538      7.20974      3.51912         0.001487      0.011693      0.008327
      2.81339      6.71124      3.84697         0.006165     -0.001502     -0.007301
      7.14064      0.61749      3.85100        -0.003860     -0.004473     -0.001315
     10.35972      6.70441      3.85378         0.001983     -0.001222     -0.004793
     14.66682      0.64308      3.85818         0.000787      0.001214      0.004180
      2.28261     10.81216      4.33241         0.005177      0.004375     -0.006017
      6.60246      4.73092      4.32295        -0.002784     -0.002644     -0.003591
      9.84154     10.79732      4.33654         0.008659     -0.011646      0.010631
     14.17050      4.74533      4.35529         0.002180      0.003101      0.004544
      1.60938      4.07066      4.59267         0.002130      0.000434     -0.001444
      4.82038     10.14392      4.63881        -0.000822      0.004674     -0.001783
      9.13713      4.07554      4.66065         0.002841     -0.003872     -0.005832
     12.38289     10.16713      4.65962        -0.008630      0.001671     -0.003081
      1.04544      8.16176      5.14259        -0.006680      0.000446      0.006837
      5.36553      2.05592      5.10209         0.005397      0.003309     -0.001334
      8.61458      8.14515      5.12212         0.005440      0.009507      0.001420
     12.91658      2.06986      5.20550        -0.002519     -0.001898      0.004075
      1.60584      1.57974      5.35537        -0.000661      0.007024      0.007349
      4.81692      7.66300      5.37440         0.004889     -0.003410     -0.003380
      9.15234      1.59604      5.40549         0.004830     -0.003389     -0.000574
     12.37725      7.67990      5.38942         0.002749     -0.014860     -0.003180
     -0.25513     10.85435      5.74981        -0.002397     -0.012286      0.001373
      4.07619      4.80678      5.76857        -0.000566      0.012584      0.002099
      7.30905     10.84955      5.75283        -0.003980     -0.001090      0.002881
     11.65253      4.77727      5.75723        -0.005302      0.000324     -0.005083
      0.54993      5.98467      6.44017        -0.001092      0.006332      0.006857
      3.66357     12.05417      6.42645         0.006542      0.015975     -0.005856
      7.93969      5.98960      6.45740        -0.000360     -0.004638      0.000521
     11.13619     12.07922      6.44522        -0.001876      0.004630      0.014813
      2.97883      9.11508      6.77449        -0.001064     -0.004046      0.001165
      7.24310      3.06036      6.71802         0.010464      0.003564      0.005106
     10.51003      9.07968      6.79934        -0.006018      0.001507      0.002589
     -0.16536      3.06969      6.72230         0.003955     -0.000483     -0.001957
      3.47176      2.60540      6.96122         0.001568      0.001375      0.001104
      6.69485      8.65200      6.95595        -0.009348      0.006996      0.002908
     10.95620      2.68441      7.14159         0.007295     -0.012021     -0.004249
     14.25895      8.65489      7.04929         0.007215      0.003151     -0.000202
      3.01579      6.74105      7.87398        -0.005339     -0.003733     -0.004163
      7.25455      0.62324      7.79503         0.000568     -0.004717     -0.002508
     10.45286      6.60798      7.75811        -0.007259     -0.000839     -0.012879
     14.88144      0.68855      7.85803        -0.007642     -0.001210     -0.006478
      2.20699      0.05031      7.92520        -0.001653     -0.001003      0.001889
      5.46130      6.14291      8.08784        -0.004784     -0.005430     -0.001285
      9.69391      0.01476      8.04882         0.001781      0.004432      0.001664
     13.07812      6.11063      7.86672         0.002247     -0.005358      0.010259
      1.75197      3.89575      8.43872         0.000651      0.003079     -0.005220
      4.93738      9.95172      8.42044         0.007226     -0.005804     -0.011585
      8.71567      3.61044      8.75403        -0.009254      0.003063     -0.000544
     12.53904     10.18432      8.23990        -0.001042     -0.009696      0.001202
      1.13476      9.72439      8.54466        -0.007195      0.008197     -0.000245
      5.39998      3.62482      8.51241         0.003174      0.001331     -0.002177
      8.61655      9.65007      8.50040         0.000337      0.006805      0.000500
     13.22212      3.56840      8.51242        -0.005645      0.002884     -0.003150
      0.46006      6.61273      8.99237         0.007977      0.006668     -0.001829
      4.71798      0.52876      8.97451         0.002868      0.000621     -0.008553
      8.16954      6.62287      9.06822         0.008739     -0.000730     -0.001893
     12.26133      0.53080      8.99310        -0.006753     -0.015886     -0.005328
     11.38816      8.13160      9.66155         0.012224     -0.004765     -0.004517
     11.03049      4.99217      9.91567         0.002227      0.006269     -0.003538
     10.39593      7.53505     12.77111        -0.011456      0.005427     -0.002371
      7.41246      4.75033     13.22448         0.001618     -0.007216     -0.012064
      7.82559      4.45806     11.53854         0.009022     -0.004923     -0.007499
      7.02111      5.99690     12.00110        -0.002564     -0.004726     -0.013624
      9.91152      5.14122     12.78994        -0.001808      0.004143      0.004728
      8.62413      7.91577     12.31959        -0.008739     -0.007385     -0.013445
      7.76263      5.24769     12.30523         0.004986     -0.011455     -0.007896
      9.39981      7.16572     12.50832        -0.002281      0.012150     -0.001636
      9.10590      5.84597     12.55291        -0.004729     -0.018875     -0.002392
 -----------------------------------------------------------------------------------
    total drift:                               -0.050530     -0.157145     -0.063610


--------------------------------------------------------------------------------------------------------



  FREE ENERGIE OF THE ION-ELECTRON SYSTEM (eV)
  ---------------------------------------------------
  free  energy   TOTEN  =     -1342.12935536 eV

  energy  without entropy=    -1342.12935536  energy(sigma->0) =    -1342.12935536
 


--------------------------------------------------------------------------------------------------------


    POTLOK:  cpu time    0.2720: real time    0.2726


--------------------------------------------------------------------------------------------------------


     LOOP+:  cpu time  356.7790: real time  357.8474
    4ORBIT:  cpu time    0.0000: real time    0.0000

 total amount of memory used by VASP MPI-rank0   174373. kBytes
=======================================================================

   base      :      30000. kBytes
   nonlr-proj:      11229. kBytes
   fftplans  :       9317. kBytes
   grid      :      26149. kBytes
   one-center:        808. kBytes
   wavefun   :      96870. kBytes
 
  
  
 General timing and accounting informations for this job:
 ========================================================
  
                  Total CPU time used (sec):      373.040
                            User time (sec):      357.107
                          System time (sec):       15.933
                         Elapsed time (sec):      374.499
  
                   Maximum memory used (kb):      413392.
                   Average memory used (kb):           0.
  
                          Minor page faults:        91308
                          Major page faults:            0
                 Voluntary context switches:         1086
