       N       E                     dE             d eps       ncg     rms          rms(c)
DAV:   1    -0.137778751237E+04   -0.13778E+04   -0.13250E+00  6304   0.977E-01    0.944E-01
DAV:   2    -0.137951966103E+04   -0.17321E+01   -0.11805E+00  6240   0.950E-01    0.409E-01
DAV:   3    -0.137952929131E+04   -0.96303E-02   -0.42620E-02  6848   0.228E-01    0.275E-01
DAV:   4    -0.137952934271E+04   -0.51402E-04   -0.21211E-03  5632   0.570E-02    0.222E-01
DAV:   5    -0.137952935114E+04   -0.84244E-05   -0.19169E-04  6656   0.179E-02    0.187E-01
DAV:   6    -0.137952936423E+04   -0.13089E-04   -0.22452E-05  6704   0.707E-03    0.161E-01
DAV:   7    -0.137952937216E+04   -0.79363E-05   -0.23950E-05  6656   0.836E-03    0.128E-01
DAV:   8    -0.137952937796E+04   -0.57968E-05   -0.18723E-05  6240   0.687E-03    0.103E-01
DAV:   9    -0.137952938254E+04   -0.45815E-05   -0.46461E-06  4224   0.341E-03    0.886E-02
DAV:  10    -0.137952938831E+04   -0.57656E-05   -0.20390E-05  6368   0.734E-03    0.544E-02
DAV:  11    -0.137952939310E+04   -0.47891E-05   -0.33005E-05  6720   0.944E-03    0.160E-02
DAV:  12    -0.137952939430E+04   -0.12053E-05   -0.45976E-06  4320   0.310E-03    0.776E-03
DAV:  13    -0.137952939457E+04   -0.26722E-06   -0.83751E-07  2944   0.141E-03
   1 F= -.13990210E+04 E0= -.13990210E+04  d E =-.998749E-25  mag=     0.0000
