 vasp.5.4.4.18Apr17-6-g9f103f2a35 (build Oct 18 2017 12:32:39) complex          
  
 executed on             LinuxIFC date 2021.11.03  16:45:34
 running on   48 total cores
 distrk:  each k-point on   48 cores,    1 groups
 distr:  one band on NCORES_PER_BAND=   6 cores,    8 groups


--------------------------------------------------------------------------------------------------------


 INCAR:
 POTCAR:    PAW_PBE Zr_sv 04Jan2005               
 POTCAR:    PAW_PBE O 08Apr2002                   
 POTCAR:    PAW_PBE H 15Jun2001                   
 POTCAR:    PAW_PBE C 08Apr2002                   
 POTCAR:    PAW_PBE Zr_sv 04Jan2005               
   VRHFIN =Zr: 4s4p5s4d                                                         
   LEXCH  = PE                                                                  
   EATOM  =  1284.2219 eV,   94.3876 Ry                                         
                                                                                
   TITEL  = PAW_PBE Zr_sv 04Jan2005                                             
   LULTRA =        F    use ultrasoft PP ?                                      
   IUNSCR =        1    unscreen: 0-lin 1-nonlin 2-no                           
   RPACOR =    2.200    partial core radius                                     
   POMASS =   91.224; ZVAL   =   12.000    mass and valenz                      
   RCORE  =    2.500    outmost cutoff radius                                   
   RWIGS  =    3.070; RWIGS  =    1.625    wigner-seitz radius (au A)           
   ENMAX  =  229.898; ENMIN  =  172.424 eV                                      
   ICORE  =        3    local potential                                         
   LCOR   =        T    correct aug charges                                     
   LPAW   =        T    paw PP                                                  
   EAUG   =  461.257                                                            
   DEXC   =    0.000                                                            
   RMAX   =    2.561    core radius for proj-oper                               
   RAUG   =    1.300    factor for augmentation sphere                          
   RDEP   =    2.597    radius for radial grids                                 
   RDEPT  =    2.007    core radius for aug-charge                              
                                                                                
   Atomic configuration                                                         
   11 entries                                                                   
     n  l   j            E        occ.                                          
     1  0  0.50    -17820.0161   2.0000                                         
     2  0  0.50     -2467.0882   2.0000                                         
     2  1  1.50     -2199.6095   6.0000                                         
     3  0  0.50      -402.4863   2.0000                                         
     3  1  1.50      -315.3675   6.0000                                         
     3  2  2.50      -172.4472  10.0000                                         
     4  0  0.50       -52.4146   2.0000                                         
     5  0  0.50        -3.8421   1.0000                                         
     4  1  1.50       -30.5054   6.0000                                         
     4  2  2.50        -2.3341   3.0000                                         
     4  3  2.50        -1.3606   0.0000                                         
   Description                                                                  
     l       E           TYP  RCUT    TYP  RCUT                                 
     0    -52.4145962     23  2.200                                             
     0     -3.8421270     23  2.500                                             
     1    -30.5053914     23  2.200                                             
     1     20.4087390     23  2.200                                             
     2     -2.3340816     23  2.500                                             
     2     -0.6120942     23  2.500                                             
     3     -4.0817478     23  2.500                                             
  local pseudopotential read in
  partial core-charges read in
  partial kinetic energy density read in
  atomic valenz-charges read in
  non local Contribution for L=           0  read in
    real space projection operators read in
  non local Contribution for L=           0  read in
    real space projection operators read in
  non local Contribution for L=           1  read in
    real space projection operators read in
  non local Contribution for L=           1  read in
    real space projection operators read in
  non local Contribution for L=           2  read in
    real space projection operators read in
  non local Contribution for L=           2  read in
    real space projection operators read in
    PAW grid and wavefunctions read in
 
   number of l-projection  operators is LMAX  =           6
   number of lm-projection operators is LMMAX =          18
 
 POTCAR:    PAW_PBE O 08Apr2002                   
   VRHFIN =O: s2p4                                                              
   LEXCH  = PE                                                                  
   EATOM  =   432.3788 eV,   31.7789 Ry                                         
                                                                                
   TITEL  = PAW_PBE O 08Apr2002                                                 
   LULTRA =        F    use ultrasoft PP ?                                      
   IUNSCR =        1    unscreen: 0-lin 1-nonlin 2-no                           
   RPACOR =    1.200    partial core radius                                     
   POMASS =   16.000; ZVAL   =    6.000    mass and valenz                      
   RCORE  =    1.520    outmost cutoff radius                                   
   RWIGS  =    1.550; RWIGS  =    0.820    wigner-seitz radius (au A)           
   ENMAX  =  400.000; ENMIN  =  300.000 eV                                      
   ICORE  =        2    local potential                                         
   LCOR   =        T    correct aug charges                                     
   LPAW   =        T    paw PP                                                  
   EAUG   =  605.392                                                            
   DEXC   =    0.000                                                            
   RMAX   =    1.553    core radius for proj-oper                               
   RAUG   =    1.300    factor for augmentation sphere                          
   RDEP   =    1.550    radius for radial grids                                 
   RDEPT  =    1.329    core radius for aug-charge                              
                                                                                
   Atomic configuration                                                         
    4 entries                                                                   
     n  l   j            E        occ.                                          
     1  0  0.50      -514.6923   2.0000                                         
     2  0  0.50       -23.9615   2.0000                                         
     2  1  0.50        -9.0305   4.0000                                         
     3  2  1.50        -9.5241   0.0000                                         
   Description                                                                  
     l       E           TYP  RCUT    TYP  RCUT                                 
     0    -23.9615318     23  1.200                                             
     0     -9.5240782     23  1.200                                             
     1     -9.0304911     23  1.520                                             
     1      8.1634956     23  1.520                                             
     2     -9.5240782      7  1.500                                             
  local pseudopotential read in
  partial core-charges read in
  partial kinetic energy density read in
  kinetic energy density of atom read in
  atomic valenz-charges read in
  non local Contribution for L=           0  read in
    real space projection operators read in
  non local Contribution for L=           0  read in
    real space projection operators read in
  non local Contribution for L=           1  read in
    real space projection operators read in
  non local Contribution for L=           1  read in
    real space projection operators read in
    PAW grid and wavefunctions read in
 
   number of l-projection  operators is LMAX  =           4
   number of lm-projection operators is LMMAX =           8
 
 POTCAR:    PAW_PBE H 15Jun2001                   
   VRHFIN =H: ultrasoft test                                                    
   LEXCH  = PE                                                                  
   EATOM  =    12.4884 eV,    0.9179 Ry                                         
                                                                                
   TITEL  = PAW_PBE H 15Jun2001                                                 
   LULTRA =        F    use ultrasoft PP ?                                      
   IUNSCR =        0    unscreen: 0-lin 1-nonlin 2-no                           
   RPACOR =    0.000    partial core radius                                     
   POMASS =    1.000; ZVAL   =    1.000    mass and valenz                      
   RCORE  =    1.100    outmost cutoff radius                                   
   RWIGS  =    0.700; RWIGS  =    0.370    wigner-seitz radius (au A)           
   ENMAX  =  250.000; ENMIN  =  200.000 eV                                      
   RCLOC  =    0.701    cutoff for local pot                                    
   LCOR   =        T    correct aug charges                                     
   LPAW   =        T    paw PP                                                  
   EAUG   =  400.000                                                            
   RMAX   =    1.123    core radius for proj-oper                               
   RAUG   =    1.200    factor for augmentation sphere                          
   RDEP   =    1.112    radius for radial grids                                 
   RDEPT  =    0.926    core radius for aug-charge                              
                                                                                
   Atomic configuration                                                         
    2 entries                                                                   
     n  l   j            E        occ.                                          
     1  0  0.50        -6.4927   1.0000                                         
     2  1  0.50        -3.4015   0.0000                                         
   Description                                                                  
     l       E           TYP  RCUT    TYP  RCUT                                 
     0     -6.4927494     23  1.100                                             
     0      6.8029130     23  1.100                                             
     1     -4.0817478     23  1.100                                             
  local pseudopotential read in
  atomic valenz-charges read in
  non local Contribution for L=           0  read in
    real space projection operators read in
  non local Contribution for L=           0  read in
    real space projection operators read in
  non local Contribution for L=           1  read in
    real space projection operators read in
    PAW grid and wavefunctions read in
 
   number of l-projection  operators is LMAX  =           3
   number of lm-projection operators is LMMAX =           5
 
 POTCAR:    PAW_PBE C 08Apr2002                   
   VRHFIN =C: s2p2                                                              
   LEXCH  = PE                                                                  
   EATOM  =   147.1560 eV,   10.8157 Ry                                         
                                                                                
   TITEL  = PAW_PBE C 08Apr2002                                                 
   LULTRA =        F    use ultrasoft PP ?                                      
   IUNSCR =        1    unscreen: 0-lin 1-nonlin 2-no                           
   RPACOR =    1.200    partial core radius                                     
   POMASS =   12.011; ZVAL   =    4.000    mass and valenz                      
   RCORE  =    1.500    outmost cutoff radius                                   
   RWIGS  =    1.630; RWIGS  =    0.863    wigner-seitz radius (au A)           
   ENMAX  =  400.000; ENMIN  =  300.000 eV                                      
   ICORE  =        2    local potential                                         
   LCOR   =        T    correct aug charges                                     
   LPAW   =        T    paw PP                                                  
   EAUG   =  644.873                                                            
   DEXC   =    0.000                                                            
   RMAX   =    1.529    core radius for proj-oper                               
   RAUG   =    1.300    factor for augmentation sphere                          
   RDEP   =    1.501    radius for radial grids                                 
   RDEPT  =    1.300    core radius for aug-charge                              
                                                                                
   Atomic configuration                                                         
    4 entries                                                                   
     n  l   j            E        occ.                                          
     1  0  0.50      -273.3789   2.0000                                         
     2  0  0.50       -13.7508   2.0000                                         
     2  1  0.50        -5.2854   2.0000                                         
     3  2  1.50        -5.4423   0.0000                                         
   Description                                                                  
     l       E           TYP  RCUT    TYP  RCUT                                 
     0    -13.7508458     23  1.200                                             
     0     -8.2022199     23  1.200                                             
     1     -5.2854383     23  1.500                                             
     1     34.0145650     23  1.500                                             
     2     -5.4423304      7  1.500                                             
  local pseudopotential read in
  partial core-charges read in
  partial kinetic energy density read in
  atomic valenz-charges read in
  non local Contribution for L=           0  read in
    real space projection operators read in
  non local Contribution for L=           0  read in
    real space projection operators read in
  non local Contribution for L=           1  read in
    real space projection operators read in
  non local Contribution for L=           1  read in
    real space projection operators read in
    PAW grid and wavefunctions read in
 
   number of l-projection  operators is LMAX  =           4
   number of lm-projection operators is LMMAX =           8
 
 Optimization of the real space projectors (new method)

 maximal supplied QI-value         = 15.12
 optimisation between [QCUT,QGAM] = [ 11.34, 22.83] = [ 36.00,145.93] Ry 
 Optimized for a Real-space Cutoff    1.47 Angstroem

   l    n(q)    QCUT    max X(q) W(low)/X(q) W(high)/X(q)  e(spline) 
   0     10    11.338    12.107    0.38E-04    0.13E-04    0.27E-07
   0     10    11.338     9.948    0.69E-04    0.30E-04    0.38E-07
   1     10    11.338     3.563    0.26E-04    0.18E-04    0.40E-07
   1     10    11.338     4.524    0.25E-03    0.39E-04    0.44E-06
   2      9    11.338    87.261    0.26E-03    0.91E-05    0.26E-06
   2      9    11.338    70.950    0.25E-03    0.91E-05    0.25E-06
 Optimization of the real space projectors (new method)

 maximal supplied QI-value         = 24.76
 optimisation between [QCUT,QGAM] = [ 11.39, 22.77] = [ 36.31,145.25] Ry 
 Optimized for a Real-space Cutoff    1.00 Angstroem

   l    n(q)    QCUT    max X(q) W(low)/X(q) W(high)/X(q)  e(spline) 
   0      7    11.387    20.381    0.39E-03    0.13E-02    0.15E-06
   0      7    11.387    15.268    0.42E-03    0.14E-02    0.17E-06
   1      6    11.387     5.964    0.41E-03    0.11E-02    0.17E-06
   1      6    11.387     5.382    0.39E-03    0.87E-03    0.15E-06
 Optimization of the real space projectors (new method)

 maximal supplied QI-value         = 34.20
 optimisation between [QCUT,QGAM] = [ 11.29, 22.57] = [ 35.68,142.71] Ry 
 Optimized for a Real-space Cutoff    1.16 Angstroem

   l    n(q)    QCUT    max X(q) W(low)/X(q) W(high)/X(q)  e(spline) 
   0      8    11.287    19.460    0.40E-03    0.73E-03    0.16E-06
   0      8    11.287    12.209    0.38E-03    0.70E-03    0.15E-06
   1      7    11.287     4.655    0.22E-03    0.25E-04    0.22E-06
 Optimization of the real space projectors (new method)

 maximal supplied QI-value         = 25.13
 optimisation between [QCUT,QGAM] = [ 11.31, 22.87] = [ 35.82,146.48] Ry 
 Optimized for a Real-space Cutoff    1.00 Angstroem

   l    n(q)    QCUT    max X(q) W(low)/X(q) W(high)/X(q)  e(spline) 
   0      7    11.310   115.676    0.43E-03    0.13E-02    0.19E-06
   0      7    11.310    87.132    0.43E-03    0.13E-02    0.18E-06
   1      6    11.310     4.429    0.42E-03    0.74E-03    0.11E-06
   1      6    11.310     2.733    0.34E-03    0.55E-03    0.92E-07
  PAW_PBE Zr_sv 04Jan2005               :
 energy of atom  1       EATOM=-1284.2219
 kinetic energy error for atom=    0.0049 (will be added to EATOM!!)
  PAW_PBE O 08Apr2002                   :
 energy of atom  2       EATOM= -432.3788
 kinetic energy error for atom=    0.0224 (will be added to EATOM!!)
  PAW_PBE H 15Jun2001                   :
 energy of atom  3       EATOM=  -12.4884
 kinetic energy error for atom=    0.0020 (will be added to EATOM!!)
  PAW_PBE C 08Apr2002                   :
 energy of atom  4       EATOM= -147.1560
 kinetic energy error for atom=    0.0076 (will be added to EATOM!!)
 
 
 POSCAR: Zr   O    H    C                        
  positions in direct lattice
  velocities in cartesian coordinates
  No initial velocities read in
 exchange correlation table for  LEXCH =        8
   RHO(1)=    0.500       N(1)  =     2000
   RHO(2)=  100.500       N(2)  =     4000

 VTST: version 3.1, (03/28/14)

 CHAIN: initializing optimizer
 
 OPT: Using Conjugate-Gradient optimizer
 OPT: CG, Init
 OPT: CG, FDSTEP      0.005000
 OPT: CG, MAXMOVE      0.200000
 
 CHAIN: Read ICHAIN            2
 
 POSCAR: Zr   O    H    C                        
  positions in direct lattice
  velocities in cartesian coordinates
  No initial velocities read in
 CHAIN: Running the Dimer method

 Dimer: -----------------
 Dimer: Input Parameters
 Dimer:   Seed      0
 Dimer: RotMax      4
 Dimer:     dR      0.005000
 Dimer:  FNMax      1.000000
 Dimer:  FNMin      0.010000
 Dimer: -----------------
 


--------------------------------------------------------------------------------------------------------


 ion  position               nearest neighbor table
   1  0.088  0.321  0.038-  78 2.10  62 2.10  50 2.18  74 2.19  61 2.26  54 2.30  16 3.37   6 3.50
                            12 3.52  13 3.65
   2  0.338  0.821  0.038-  79 2.10  63 2.10  51 2.18  75 2.19  58 2.26  55 2.30  13 3.37   7 3.50
                             9 3.52  14 3.65
   3  0.588  0.321  0.038-  80 2.10  64 2.10  52 2.18  76 2.19  59 2.26  56 2.30  14 3.37   8 3.50
                            10 3.52  15 3.65
   4  0.838  0.821  0.038-  81 2.10  65 2.10  53 2.18  77 2.19  60 2.26  57 2.30  15 3.37   5 3.50
                            11 3.52  16 3.65
   5  0.070  0.834  0.049-  82 2.07  66 2.10  65 2.18  58 2.19  57 2.22  70 2.30  12 3.37  17 3.46
                             4 3.50  16 3.52   9 3.65
   6  0.320  0.334  0.049-  83 2.06  67 2.10  62 2.18  59 2.19  54 2.22  71 2.30   9 3.37  18 3.47
                             1 3.50  13 3.52  10 3.65
   7  0.570  0.834  0.049-  84 2.06  68 2.10  63 2.18  60 2.19  55 2.22  72 2.30  10 3.37  19 3.49
                             2 3.50  14 3.52  11 3.65
   8  0.820  0.334  0.049-  85 2.08  69 2.10  64 2.18  61 2.19  56 2.22  73 2.30  11 3.37   3 3.50
                            20 3.52  15 3.52  12 3.65
   9  0.238  0.068  0.057-  62 2.10  86 2.16  67 2.18  70 2.19  75 2.22  58 2.30   6 3.37  17 3.48
                            14 3.50  22 3.52   2 3.52   5 3.65
  10  0.488  0.568  0.057-  63 2.10  87 2.17  68 2.18  71 2.19  76 2.22  59 2.30   7 3.37  18 3.48
                            15 3.50  23 3.52   3 3.52   6 3.65
  11  0.738  0.068  0.057-  64 2.10  69 2.18  88 2.18  72 2.19  77 2.22  60 2.30   8 3.37  19 3.47
                            16 3.50   4 3.52  24 3.53   7 3.65
  12  0.988  0.568  0.057-  65 2.10  66 2.18  89 2.18  73 2.19  74 2.22  61 2.30   5 3.37  13 3.50
                             1 3.52  21 3.53  20 3.53   8 3.65
  13  0.220  0.581  0.068-  51 2.10  66 2.10  79 2.18  54 2.19  90 2.26  71 2.26  74 2.30   2 3.37
                            26 3.49  21 3.50  18 3.50  12 3.50   6 3.52   1 3.65
  14  0.470  0.081  0.068-  52 2.10  67 2.10  80 2.18  55 2.19  72 2.26  91 2.27  75 2.30   3 3.37
                            27 3.48  22 3.49   9 3.50  19 3.52   7 3.52   2 3.65
  15  0.720  0.581  0.068-  53 2.10  68 2.10  81 2.18  56 2.19  73 2.26  92 2.26  76 2.30   4 3.37
                            23 3.49  28 3.50  10 3.50   8 3.52  20 3.54   3 3.65
  16  0.970  0.081  0.068-  50 2.10  69 2.10  78 2.18  57 2.19  70 2.26  93 2.26  77 2.30   1 3.37
                            17 3.50  11 3.50  24 3.50  25 3.50   5 3.52   4 3.65
  17  0.106  0.983  0.171-  94 2.09 110 2.13  82 2.16  70 2.18 106 2.20  93 2.23  86 2.31  32 3.40
                             5 3.46   9 3.48  16 3.50  22 3.52  25 3.54  29 3.67
  18  0.356  0.484  0.171-  95 2.09 111 2.13  83 2.16  71 2.19 107 2.19  90 2.23  87 2.30  29 3.37
                             6 3.47  10 3.48  13 3.50  23 3.52  26 3.54  30 3.65
  19  0.608  0.985  0.171-  96 2.09 112 2.14  84 2.18  72 2.19 108 2.21  91 2.23  88 2.27  30 3.39
                            11 3.47   7 3.49  24 3.49  14 3.52  27 3.52  31 3.70
  20  0.856  0.483  0.173-  97 2.10 113 2.11  85 2.18 109 2.20  92 2.23  73 2.24  89 2.32  31 3.32
                            28 3.49   8 3.52  21 3.52  12 3.53  15 3.54  32 3.63
  21  0.089  0.495  0.183- 114 2.09  98 2.11  97 2.17  90 2.18  74 2.24  89 2.27 102 2.29  25 3.37
                            13 3.50  32 3.51  20 3.52  12 3.53  26 3.62  33 3.64
  22  0.339  0.995  0.182- 115 2.09  99 2.11  94 2.17  91 2.19  75 2.24 103 2.26  86 2.27  26 3.39
                            14 3.49  29 3.51   9 3.52  17 3.52  34 3.61  27 3.62
  23  0.589  0.493  0.182- 100 2.08 116 2.12  95 2.17  92 2.18  76 2.22  87 2.29 104 2.31  27 3.36
                            15 3.49  35 3.49  10 3.52  18 3.52  30 3.56  28 3.69
  24  0.839  0.995  0.183- 117 2.10 101 2.10  96 2.18  93 2.18  77 2.25  88 2.27 105 2.28  28 3.36
                            19 3.49  16 3.50  11 3.53  31 3.54  36 3.61  25 3.64
  25  0.005  0.230  0.191-  78 2.10  97 2.10 121 2.17  98 2.19 105 2.21 106 2.29  93 2.30  21 3.37
                            37 3.44  16 3.50  17 3.54  29 3.55  24 3.64  36 3.66
  26  0.253  0.730  0.191-  94 2.10  79 2.10 102 2.18 118 2.20  99 2.20 107 2.29  90 2.29  22 3.39
                            38 3.45  13 3.49  18 3.54  30 3.54  21 3.62  33 3.65
  27  0.504  0.229  0.191-  80 2.09  95 2.11 119 2.18 100 2.19 103 2.19  91 2.29 108 2.29  23 3.36
                            39 3.47  14 3.48  19 3.52  31 3.59  22 3.62  34 3.66
  28  0.758  0.730  0.191-  81 2.08  96 2.11 101 2.16 120 2.22 104 2.23 109 2.24  92 2.30  24 3.36
                            35 3.48  32 3.48  20 3.49  15 3.50  40 3.58  23 3.69
  29  0.240  0.242  0.201-  98 2.10  83 2.10 122 2.19 103 2.21 111 2.21  86 2.23 106 2.28  18 3.37
                            37 3.41  42 3.50  22 3.51  25 3.55  34 3.63  17 3.67
  30  0.487  0.743  0.199-  99 2.08  84 2.09 112 2.19 123 2.20  87 2.22 104 2.26 107 2.30  19 3.39
                            38 3.44  35 3.48  43 3.49  26 3.54  23 3.56  18 3.65
  31  0.741  0.246  0.204-  85 2.11 100 2.12 113 2.13 105 2.21 124 2.25  88 2.29 108 2.31  20 3.32
                            39 3.44  24 3.54  44 3.55  27 3.59  36 3.63  19 3.70
  32  0.988  0.740  0.203- 101 2.11  82 2.14 110 2.18 102 2.21 125 2.22  89 2.23 109 2.26  17 3.40
                            41 3.46  28 3.48  21 3.51  40 3.53  33 3.62  20 3.63
  33  0.123  0.642  0.314- 142 2.02 126 2.16 138 2.17 114 2.21 125 2.23 118 2.37 102 2.42  45 3.23
                            41 3.47  38 3.54  32 3.62  21 3.64  26 3.65  46 3.71
  34  0.371  0.140  0.313- 143 2.02 127 2.14 139 2.19 115 2.19 122 2.24 119 2.36 103 2.43  46 3.23
                            42 3.49  39 3.54  22 3.61  29 3.63  47 3.65  27 3.66
  35  0.622  0.648  0.304- 140 2.14 123 2.17 128 2.18 104 2.19 116 2.19 120 2.24 144 2.28  49 3.21
                            43 3.42  47 3.44  30 3.48  28 3.48  23 3.49  40 3.58  48 3.71
  36  0.874  0.138  0.314- 145 2.03 129 2.12 141 2.14 117 2.22 124 2.29 105 2.38 121 2.44  48 3.23
                            44 3.42  37 3.55  24 3.61  31 3.63  25 3.66  45 3.76
  37  0.110  0.162  0.312- 130 2.09 121 2.14 129 2.16 106 2.16 122 2.16 134 2.17  29 3.41  25 3.44
                            41 3.45  45 3.51  36 3.55  42 3.58
  38  0.358  0.660  0.312- 131 2.10 107 2.15 126 2.15 118 2.16 123 2.17 135 2.17  30 3.44  42 3.44
                            26 3.45  46 3.53  33 3.54  43 3.59
  39  0.606  0.158  0.314- 136 2.10 132 2.11 127 2.15 108 2.16 124 2.18 119 2.21  43 3.43  31 3.44
                            47 3.46  27 3.47  34 3.54  44 3.68
  40  0.858  0.664  0.321- 133 2.12 146 2.18 137 2.19 125 2.19 120 2.20 128 2.30 109 2.32  48 3.45
                            49 3.50  32 3.53  44 3.54  35 3.58  28 3.58  41 3.58
  41  0.027  0.890  0.324- 110 2.05 137 2.14 138 2.15 129 2.16 130 2.20 125 2.31  37 3.45  32 3.46
                            33 3.47  46 3.49  40 3.58
  42  0.275  0.389  0.325- 111 2.06 139 2.13 126 2.14 131 2.24 134 2.26 122 2.29  38 3.44  47 3.49
                            34 3.49  29 3.50  37 3.58
  43  0.524  0.888  0.324- 112 2.05 140 2.14 127 2.14 132 2.18 135 2.23 123 2.31  35 3.42  39 3.43
                            30 3.49  48 3.56  38 3.59
  44  0.783  0.382  0.333- 141 2.10 147 2.11 133 2.15 113 2.22 124 2.25 128 2.26 136 2.62  49 3.21
                            36 3.42  45 3.44  40 3.54  31 3.55  39 3.68
  45  0.011  0.408  0.336- 142 2.02 114 2.06 133 2.17 141 2.24 134 2.29 121 2.31  33 3.23  44 3.44
                            37 3.51  36 3.76
  46  0.259  0.907  0.336- 143 2.03 115 2.07 130 2.15 138 2.27 135 2.29 118 2.30  34 3.23  41 3.49
                            38 3.53  33 3.71
  47  0.506  0.400  0.334- 116 2.07 136 2.14 131 2.17 144 2.21 119 2.21 139 2.23  35 3.44  39 3.46
                            42 3.49  34 3.65  49 3.87
  48  0.760  0.907  0.337- 145 2.01 117 2.06 132 2.18 137 2.23 120 2.32 140 2.37  36 3.23  40 3.45
                            43 3.56  35 3.71
  49  0.700  0.552  0.416- 147 1.92 144 2.08 148 2.08 146 2.11 128 2.20 167 2.49  35 3.21  44 3.21
                            40 3.50  47 3.87
  50  0.024  0.173  0.000-  16 2.10   1 2.18
  51  0.274  0.673  0.000-  13 2.10   2 2.18
  52  0.524  0.173  0.000-  14 2.10   3 2.18
  53  0.774  0.673  0.000-  15 2.10   4 2.18
  54  0.215  0.432  0.016-  13 2.19   6 2.22   1 2.30
  55  0.465  0.932  0.016-  14 2.19   7 2.22   2 2.30
  56  0.715  0.432  0.016-  15 2.19   8 2.22   3 2.30
  57  0.965  0.932  0.016-  16 2.19   5 2.22   4 2.30
  58  0.207  0.891  0.025-   5 2.19   2 2.26   9 2.30
  59  0.457  0.391  0.025-   6 2.19   3 2.26  10 2.30
  60  0.707  0.891  0.025-   7 2.19   4 2.26  11 2.30
  61  0.957  0.391  0.025-   8 2.19   1 2.26  12 2.30
  62  0.197  0.226  0.044-   9 2.10   1 2.10   6 2.18
  63  0.447  0.726  0.044-  10 2.10   2 2.10   7 2.18
  64  0.697  0.226  0.044-  11 2.10   3 2.10   8 2.18
  65  0.947  0.726  0.044-  12 2.10   4 2.10   5 2.18
  66  0.111  0.675  0.062-   5 2.10  13 2.10  12 2.18
  67  0.361  0.175  0.062-   6 2.10  14 2.10   9 2.18
  68  0.611  0.675  0.062-   7 2.10  15 2.10  10 2.18
  69  0.861  0.175  0.062-   8 2.10  16 2.10  11 2.18
  70  0.101  0.010  0.081-  17 2.18   9 2.19  16 2.26   5 2.30
  71  0.351  0.510  0.081-  18 2.19  10 2.19  13 2.26   6 2.30
  72  0.601  0.010  0.081-  19 2.19  11 2.19  14 2.26   7 2.30
  73  0.851  0.510  0.081-  12 2.19  20 2.24  15 2.26   8 2.30
  74  0.093  0.470  0.090-   1 2.19  12 2.22  21 2.24  13 2.30
  75  0.343  0.970  0.090-   2 2.19   9 2.22  22 2.24  14 2.30
  76  0.593  0.470  0.090-   3 2.19  10 2.22  23 2.22  15 2.30
  77  0.843  0.970  0.090-   4 2.19  11 2.22  24 2.25  16 2.30
  78  0.034  0.229  0.106-   1 2.10  25 2.10  16 2.18
  79  0.284  0.729  0.106-   2 2.10  26 2.10  13 2.18
  80  0.534  0.229  0.106-  27 2.09   3 2.10  14 2.18
  81  0.784  0.729  0.106-  28 2.08   4 2.10  15 2.18
  82  0.045  0.833  0.134-   5 2.07  32 2.14  17 2.16
  83  0.296  0.334  0.133-   6 2.06  29 2.10  18 2.16
  84  0.546  0.834  0.133-   7 2.06  30 2.09  19 2.18
  85  0.796  0.333  0.134-   8 2.08  31 2.11  20 2.18
  86  0.231  0.093  0.146-   9 2.16  29 2.23  22 2.27  17 2.31
  87  0.481  0.593  0.147-  10 2.17  30 2.22  23 2.29  18 2.30
  88  0.732  0.094  0.147-  11 2.18  24 2.27  19 2.27  31 2.29
  89  0.981  0.593  0.147-  12 2.18  32 2.23  21 2.27  20 2.32
  90  0.225  0.552  0.160-  21 2.18  18 2.23  13 2.26  26 2.29
  91  0.476  0.051  0.161-  22 2.19  19 2.23  14 2.27  27 2.29
  92  0.725  0.552  0.161-  23 2.18  20 2.23  15 2.26  28 2.30
  93  0.975  0.053  0.161-  24 2.18  17 2.23  16 2.26  25 2.30
  94  0.215  0.890  0.181-  17 2.09  26 2.10  22 2.17
  95  0.465  0.390  0.181-  18 2.09  27 2.11  23 2.17
  96  0.715  0.889  0.181-  19 2.09  28 2.11  24 2.18
  97  0.965  0.390  0.182-  20 2.10  25 2.10  21 2.17
  98  0.130  0.335  0.192-  29 2.10  21 2.11  25 2.19
  99  0.379  0.835  0.193-  30 2.08  22 2.11  26 2.20
 100  0.628  0.335  0.194-  23 2.08  31 2.12  27 2.19
 101  0.880  0.837  0.194-  24 2.10  32 2.11  28 2.16
 102  0.117  0.671  0.214-  26 2.18  32 2.21  21 2.29  33 2.42
 103  0.367  0.170  0.213-  27 2.19  29 2.21  22 2.26  34 2.43
 104  0.618  0.671  0.213-  35 2.19  28 2.23  30 2.26  23 2.31
 105  0.868  0.170  0.216-  25 2.21  31 2.21  24 2.28  36 2.38
 106  0.116  0.130  0.224-  37 2.16  17 2.20  29 2.28  25 2.29
 107  0.363  0.631  0.224-  38 2.15  18 2.19  26 2.29  30 2.30
 108  0.615  0.132  0.225-  39 2.16  19 2.21  27 2.29  31 2.31
 109  0.864  0.632  0.225-  20 2.20  28 2.24  32 2.26  40 2.32
 110  0.047  0.893  0.240-  41 2.05  17 2.13  32 2.18
 111  0.297  0.396  0.241-  42 2.06  18 2.13  29 2.21
 112  0.547  0.893  0.240-  43 2.05  19 2.14  30 2.19
 113  0.797  0.394  0.242-  20 2.11  31 2.13  44 2.22
 114  0.069  0.493  0.269-  45 2.06  21 2.09  33 2.21
 115  0.315  0.993  0.268-  46 2.07  22 2.09  34 2.19
 116  0.562  0.494  0.268-  47 2.07  23 2.12  35 2.19
 117  0.810  0.993  0.269-  48 2.06  24 2.10  36 2.22
 118  0.250  0.750  0.282-  38 2.16  26 2.20  46 2.30  33 2.37
 119  0.497  0.250  0.281-  27 2.18  39 2.21  47 2.21  34 2.36
 120  0.749  0.748  0.283-  40 2.20  28 2.22  35 2.24  48 2.32
 121  0.005  0.252  0.281-  37 2.14  25 2.17  45 2.31  36 2.44
 122  0.246  0.215  0.291-  37 2.16  29 2.19  34 2.24  42 2.29
 123  0.494  0.712  0.290-  38 2.17  35 2.17  30 2.20  43 2.31
 124  0.744  0.216  0.296-  39 2.18  31 2.25  44 2.25  36 2.29
 125  0.995  0.711  0.294-  40 2.19  32 2.22  33 2.23  41 2.31
 126  0.239  0.555  0.329-  42 2.14  38 2.15  33 2.16
 127  0.486  0.053  0.327-  34 2.14  43 2.14  39 2.15
 128  0.730  0.549  0.327-  35 2.18  49 2.20  44 2.26  40 2.30
 129  0.990  0.056  0.328-  36 2.12  37 2.16  41 2.16
 130  0.148  0.005  0.330-  37 2.09  46 2.15  41 2.20
 131  0.398  0.505  0.334-  38 2.10  47 2.17  42 2.24
 132  0.643  0.000  0.334-  39 2.11  48 2.18  43 2.18
 133  0.896  0.502  0.330-  40 2.12  44 2.15  45 2.17
 134  0.138  0.322  0.352-  37 2.17  42 2.26  45 2.29
 135  0.386  0.823  0.348-  38 2.17  43 2.23  46 2.29
 136  0.618  0.311  0.355-  39 2.10  47 2.14  44 2.62
 137  0.891  0.838  0.342-  41 2.14  40 2.19  48 2.23
 138  0.132  0.800  0.356-  41 2.15  33 2.17  46 2.27
 139  0.381  0.299  0.355-  42 2.13  34 2.19  47 2.23
 140  0.627  0.793  0.354-  43 2.14  35 2.14  48 2.37
 141  0.891  0.294  0.356-  44 2.10  36 2.14  45 2.24
 142  0.067  0.544  0.375-  33 2.02  45 2.02
 143  0.316  0.043  0.375-  34 2.02  46 2.03
 144  0.576  0.541  0.378-  49 2.08  47 2.21  35 2.28
 145  0.816  0.042  0.375-  48 2.01  36 2.03
 146  0.800  0.681  0.403- 148 1.19  49 2.11  40 2.18
 147  0.758  0.419  0.418-  49 1.92  44 2.11
 148  0.768  0.695  0.448- 146 1.19  49 2.08
 149  0.391  0.692  0.428- 164 1.11
 150  0.480  0.851  0.472- 163 1.11
 151  0.276  0.795  0.517- 162 1.10
 152  0.456  0.795  0.539- 163 1.10
 153  0.241  0.744  0.451- 162 1.10
 154  0.316  0.867  0.457- 162 1.10
 155  0.544  0.673  0.445- 165 1.10
 156  0.362  0.636  0.494- 164 1.10
 157  0.528  0.624  0.514- 165 1.11
 158  0.650  0.828  0.480- 166 1.10
 159  0.631  0.784  0.549- 166 1.10
 160  0.769  0.711  0.522- 167 1.10
 161  0.691  0.599  0.523- 167 1.12
 162  0.298  0.784  0.474- 151 1.10 153 1.10 154 1.10 164 1.53
 163  0.465  0.772  0.495- 152 1.10 150 1.11 165 1.53 164 1.53
 164  0.378  0.715  0.472- 156 1.10 149 1.11 162 1.53 163 1.53
 165  0.542  0.700  0.489- 155 1.10 157 1.11 166 1.53 163 1.53
 166  0.634  0.754  0.505- 158 1.10 159 1.10 165 1.53 167 1.55
 167  0.709  0.676  0.499- 160 1.10 161 1.12 166 1.55  49 2.49
 
  Warning from LATTYP: Monoclinic adjustement (A1->A3, A2->A1, A3->A2)!
  Warning from LATTYP: Got some problem with cell dimensions!
  Tried to take original basis but could not verify dimensions!
  LATTYP: Found a simple monoclinic cell.
 ALAT       =    18.5584556648
 B/A-ratio  =     1.2917238965
 C/A-ratio  =     1.7011970181
 COS(beta)  =    -0.9496615564
  
  Lattice vectors:
  
 A1 = ( -14.0305058395, -12.1474763861,   0.0000000000)
 A2 = (   0.0000000000,   0.0000000000, -23.9724006653)
 A3 = (  29.1411063110,  12.1474763861,   0.0000000000)


Analysis of symmetry for initial positions (statically):
=====================================================================
 Subroutine PRICEL returns:
 Original cell was already a primitive cell.
 

 Routine SETGRP: Setting up the symmetry group for a 
 simple monoclinic supercell.


 Subroutine GETGRP returns: Found  1 space group operations
 (whereof  1 operations were pure point group operations)
 out of a pool of  4 trial point group operations.


The static configuration has the point symmetry C_1 .


Analysis of symmetry for dynamics (positions and initial velocities):
=====================================================================
 Subroutine PRICEL returns:
 Original cell was already a primitive cell.
 

 Routine SETGRP: Setting up the symmetry group for a 
 simple monoclinic supercell.


 Subroutine GETGRP returns: Found  1 space group operations
 (whereof  1 operations were pure point group operations)
 out of a pool of  4 trial point group operations.


The dynamic configuration has the point symmetry C_1 .


Analysis of constrained symmetry for selective dynamics:
=====================================================================
 Subroutine PRICEL returns:
 Original cell was already a primitive cell.
 

 Routine SETGRP: Setting up the symmetry group for a 
 simple monoclinic supercell.


 Subroutine GETGRP returns: Found  1 space group operations
 (whereof  1 operations were pure point group operations)
 out of a pool of  4 trial point group operations.


The constrained configuration has the point symmetry C_1 .


Analysis of structural, dynamic, and magnetic symmetry:
=====================================================================
 Subroutine PRICEL returns:
 Original cell was already a primitive cell.
 

 Routine SETGRP: Setting up the symmetry group for a 
 simple monoclinic supercell.


 Subroutine GETGRP returns: Found  1 space group operations
 (whereof  1 operations were pure point group operations)
 out of a pool of  4 trial point group operations.


The magnetic configuration has the point symmetry C_1 .


 Subroutine INISYM returns: Found  1 space group operations
 (whereof  1 operations are pure point group operations),
 and found     1 'primitive' translations

 
 
 KPOINTS: Monkhorst Pack                          

Automatic generation of k-mesh.
Space group operators:
 irot       det(A)        alpha          n_x          n_y          n_z        tau_x        tau_y        tau_z
    1     1.000000     0.000001     1.000000     0.000000     0.000000     0.000000     0.000000     0.000000
 
 Subroutine IBZKPT returns following result:
 ===========================================
 
 Found      2 irreducible k-points:
 
 Following reciprocal coordinates:
            Coordinates               Weight
  0.250000  0.250000  0.000000      2.000000
 -0.250000  0.250000  0.000000      2.000000
 
 Following cartesian coordinates:
            Coordinates               Weight
  0.016545  0.022051  0.000000      2.000000
 -0.016545  0.019109  0.000000      2.000000
 


--------------------------------------------------------------------------------------------------------




 Dimension of arrays:
   k-points           NKPTS =      2   k-points in BZ     NKDIM =      2   number of bands    NBANDS=    640
   number of dos      NEDOS =    301   number of ions     NIONS =    167
   non local maximal  LDIM  =      6   non local SUM 2l+1 LMDIM =     18
   total plane-waves  NPLWV = 823200
   max r-space proj   IRMAX =   2561   max aug-charges    IRDMAX=   7978
   dimension x,y,z NGX =    84 NGY =   70 NGZ =  140
   dimension x,y,z NGXF=   168 NGYF=  140 NGZF=  280
   support grid    NGXF=   168 NGYF=  140 NGZF=  280
   ions per type =              49  98  14   6
   NGX,Y,Z   is equivalent  to a cutoff of   9.24,  9.54,  9.71 a.u.
   NGXF,Y,Z  is equivalent  to a cutoff of  18.48, 19.08, 19.42 a.u.

 SYSTEM =  mZrO2_n111_dimer                        
 POSCAR =  Zr   O    H    C                        

 Startparameter for this run:
   NWRITE =      2    write-flag & timer
   PREC   = normal    normal or accurate (medium, high low for compatibility)
   ISTART =      1    job   : 0-new  1-cont  2-samecut
   ICHARG =      1    charge: 1-file 2-atom 10-const
   ISPIN  =      2    spin polarized calculation?
   LNONCOLLINEAR =      F non collinear calculations
   LSORBIT =      F    spin-orbit coupling
   INIWAV =      1    electr: 0-lowe 1-rand  2-diag
   LASPH  =      F    aspherical Exc in radial PAW
   METAGGA=      F    non-selfconsistent MetaGGA calc.

 Electronic Relaxation 1
   ENCUT  =  500.0 eV  36.75 Ry    6.06 a.u.  27.55 22.24 43.71*2*pi/ulx,y,z
   ENINI  =  500.0     initial cutoff
   ENAUG  =  644.9 eV  augmentation charge cutoff
   NELM   =    300;   NELMIN=  2; NELMDL=  0     # of ELM steps 
   EDIFF  = 0.1E-05   stopping-criterion for ELM
   LREAL  =      T    real-space projection
   NLSPLINE    = F    spline interpolate recip. space projectors
   LCOMPAT=      F    compatible to vasp.4.4
   GGA_COMPAT  = T    GGA compatible to vasp.4.4-vasp.4.6
   LMAXPAW     = -100 max onsite density
   LMAXMIX     =    2 max onsite mixed and CHGCAR
   VOSKOWN=      0    Vosko Wilk Nusair interpolation
   ROPT   =   -0.00050  -0.00050  -0.00050  -0.00050
 Ionic relaxation
   EDIFFG = -.5E-01   stopping-criterion for IOM
   NSW    =      0    number of steps for IOM
   NBLOCK =      1;   KBLOCK =      1    inner block; outer block 
   IBRION =     -1    ionic relax: 0-MD 1-quasi-New 2-CG
   NFREE  =      0    steps in history (QN), initial steepest desc. (CG)
   ISIF   =      2    stress and relaxation
   IWAVPR =     10    prediction:  0-non 1-charg 2-wave 3-comb
   ISYM   =      2    0-nonsym 1-usesym 2-fastsym
   LCORR  =      T    Harris-Foulkes like correction to forces

   POTIM  = 0.0000    time-step for ionic-motion
   TEIN   =    0.0    initial temperature
   TEBEG  =    0.0;   TEEND  =   0.0 temperature during run
   SMASS  =  -3.00    Nose mass-parameter (am)
   estimated Nose-frequenzy (Omega)   =  0.10E-29 period in steps =  0.00 mass=  -0.522E-26a.u.
   SCALEE = 1.0000    scale energy and forces
   NPACO  =    256;   APACO  = 16.0  distance and # of slots for P.C.
   PSTRESS=    0.0 pullay stress

  Mass of Ions in am
   POMASS =  91.22 16.00  1.00 12.01
  Ionic Valenz
   ZVAL   =  12.00  6.00  1.00  4.00
  Atomic Wigner-Seitz radii
   RWIGS  =  -1.00 -1.00 -1.00 -1.00
  virtual crystal weights 
   VCA    =   1.00  1.00  1.00  1.00
   NELECT =    1214.0000    total number of electrons
   NUPDOWN=      -1.0000    fix difference up-down

 DOS related values:
   EMIN   =  10.00;   EMAX   =-10.00  energy-range for DOS
   EFERMI =   0.00
   ISMEAR =     0;   SIGMA  =   0.05  broadening in eV -4-tet -1-fermi 0-gaus

 Electronic relaxation 2 (details)
   IALGO  =     38    algorithm
   LDIAG  =      T    sub-space diagonalisation (order eigenvalues)
   LSUBROT=      F    optimize rotation matrix (better conditioning)
   TURBO    =      0    0=normal 1=particle mesh
   IRESTART =      0    0=no restart 2=restart with 2 vectors
   NREBOOT  =      0    no. of reboots
   NMIN     =      0    reboot dimension
   EREF     =   0.00    reference energy to select bands
   IMIX   =      4    mixing-type and parameters
     AMIX     =   0.40;   BMIX     =  1.00
     AMIX_MAG =   1.60;   BMIX_MAG =  1.00
     AMIN     =   0.10
     WC   =   100.;   INIMIX=   1;  MIXPRE=   1;  MAXMIX= -45

 Intra band minimization:
   WEIMIN = 0.0000     energy-eigenvalue tresh-hold
   EBREAK =  0.39E-09  absolut break condition
   DEPER  =   0.30     relativ break condition  

   TIME   =   0.40     timestep for ELM

  volume/ion in A,a.u.               =      26.35       177.81
  Fermi-wavevector in a.u.,A,eV,Ry     =   1.065748  2.013972 15.453760  1.135819
  Thomas-Fermi vector in A             =   2.201310
 
 Write flags
   LWAVE        =      T    write WAVECAR
   LDOWNSAMPLE  =      F    k-point downsampling of WAVECAR
   LCHARG       =      T    write CHGCAR
   LVTOT        =      F    write LOCPOT, total local potential
   LVHAR        =      F    write LOCPOT, Hartree potential only
   LELF         =      F    write electronic localiz. function (ELF)
   LORBIT       =      0    0 simple, 1 ext, 2 COOP (PROOUT), +10 PAW based schemes


 Dipole corrections
   LMONO  =      F    monopole corrections only (constant potential shift)
   LDIPOL =      F    correct potential (dipole corrections)
   IDIPOL =      3    1-x, 2-y, 3-z, 4-all directions 
   EPSILON=  1.0000000 bulk dielectric constant

 LDA+U is selected, type is set to LDAUTYPE =  2
   angular momentum for each species LDAUL =     2   -1   -1   -1
   U (eV)           for each species LDAUU =   4.0  0.0  0.0  0.0
   J (eV)           for each species LDAUJ =   0.0  0.0  0.0  0.0
 Exchange correlation treatment:
   GGA     =    --    GGA type
   LEXCH   =     8    internal setting for exchange type
   VOSKOWN=      0    Vosko Wilk Nusair interpolation
   LHFCALC =     F    Hartree Fock is set to
   LHFONE  =     F    Hartree Fock one center treatment
   AEXX    =    0.0000 exact exchange contribution

 Linear response parameters
   LEPSILON=     F    determine dielectric tensor
   LRPA    =     F    only Hartree local field effects (RPA)
   LNABLA  =     F    use nabla operator in PAW spheres
   LVEL    =     F    velocity operator in full k-point grid
   LINTERFAST=   F  fast interpolation
   KINTER  =     0    interpolate to denser k-point grid
   CSHIFT  =0.1000    complex shift for real part using Kramers Kronig
   OMEGAMAX=  -1.0    maximum frequency
   DEG_THRESHOLD= 0.2000000E-02 threshold for treating states as degnerate
   RTIME   =   -0.100 relaxation time in fs
  (WPLASMAI=    0.000 imaginary part of plasma frequency in eV, 0.658/RTIME)
   DFIELD  = 0.0000000 0.0000000 0.0000000 field for delta impulse in time
 
 Orbital magnetization related:
   ORBITALMAG=     F  switch on orbital magnetization
   LCHIMAG   =     F  perturbation theory with respect to B field
   DQ        =  0.001000  dq finite difference perturbation B field
   LLRAUG    =     F  two centre corrections for induced B field



--------------------------------------------------------------------------------------------------------


 Static calculation
 charge density and potential will be updated during run
 spin polarized calculation
 Variant of blocked Davidson
 Davidson routine will perform the subspace rotation
 perform sub-space diagonalisation
    after iterative eigenvector-optimisation
 modified Broyden-mixing scheme, WC =      100.0
 initial mixing is a Kerker type mixing with AMIX =  0.4000 and BMIX =      1.0000
 Hartree-type preconditioning will be used
 using additional bands           33
 real space projection scheme for non local part
 use partial core corrections
 calculate Harris-corrections to forces 
   (improved forces if not selfconsistent)
 use gradient corrections 
 use of overlap-Matrix (Vanderbilt PP)
 Gauss-broadening in eV      SIGMA  =   0.05


--------------------------------------------------------------------------------------------------------


  energy-cutoff  :      500.00
  volume of cell :     4400.27
      direct lattice vectors                 reciprocal lattice vectors
    15.110600471  0.000000000  0.000000000     0.066178707  0.005884289  0.000000000
    -1.080094632 12.147476386  0.000000000     0.000000000  0.082321625  0.000000000
     0.000000000  0.000000000 23.972400665     0.000000000  0.000000000  0.041714637

  length of vectors
    15.110600471 12.195400238 23.972400665     0.066439793  0.082321625  0.041714637


 
 old parameters found on file WAVECAR:
  energy-cutoff  :      500.00
  volume of cell :     4400.27
      direct lattice vectors                 reciprocal lattice vectors
    15.110600471  0.000000000  0.000000000     0.066178707  0.005884289  0.000000000
    -1.080094632 12.147476386  0.000000000     0.000000000  0.082321625  0.000000000
     0.000000000  0.000000000 23.972400665     0.000000000  0.000000000  0.041714637

  length of vectors

 
 k-points in units of 2pi/SCALE and weight: Monkhorst Pack                          
   0.01654468  0.02205148  0.00000000       0.500
  -0.01654468  0.01910933  0.00000000       0.500
 
 k-points in reciprocal lattice and weights: Monkhorst Pack                          
   0.25000000  0.25000000  0.00000000       0.500
  -0.25000000  0.25000000  0.00000000       0.500
 
 position of ions in fractional coordinates (direct lattice) 
   0.08848000  0.32082999  0.03824000
   0.33847998  0.82083000  0.03824000
   0.58847999  0.32082999  0.03824000
   0.83848001  0.82083000  0.03824000
   0.07020001  0.83354995  0.04873000
   0.32019998  0.33355000  0.04873000
   0.57020004  0.83354995  0.04873000
   0.82020001  0.33355000  0.04873000
   0.23783000  0.06778000  0.05703000
   0.48783004  0.56778001  0.05703000
   0.73783001  0.06778000  0.05703000
   0.98782997  0.56778001  0.05703000
   0.21954999  0.58051001  0.06752000
   0.46955000  0.08051000  0.06752000
   0.71954999  0.58051001  0.06752000
   0.96955000  0.08051000  0.06752000
   0.10566860  0.98278532  0.17083562
   0.35614950  0.48369170  0.17103249
   0.60793983  0.98453733  0.17121633
   0.85567353  0.48324683  0.17334279
   0.08909394  0.49470582  0.18258082
   0.33889058  0.99533634  0.18220514
   0.58912776  0.49268280  0.18191732
   0.83859454  0.99542986  0.18286075
   0.00454980  0.23035412  0.19144891
   0.25265971  0.73007558  0.19117484
   0.50404041  0.22895321  0.19085232
   0.75796962  0.72993363  0.19105337
   0.23953614  0.24201670  0.20068384
   0.48748202  0.74318918  0.19936594
   0.74138564  0.24555475  0.20385242
   0.98841892  0.74003468  0.20258782
   0.12270461  0.64172964  0.31416759
   0.37122641  0.13988353  0.31296151
   0.62199065  0.64844852  0.30362102
   0.87407325  0.13839930  0.31387769
   0.10960711  0.16174925  0.31224969
   0.35781637  0.66006554  0.31199805
   0.60620936  0.15813581  0.31375730
   0.85811681  0.66444300  0.32079534
   0.02729673  0.88963593  0.32406960
   0.27527892  0.38910152  0.32527726
   0.52406256  0.88794761  0.32413772
   0.78285294  0.38217028  0.33342326
   0.01123551  0.40774246  0.33610051
   0.25863557  0.90708990  0.33599443
   0.50645657  0.39968197  0.33365118
   0.75968229  0.90678073  0.33703992
   0.69967308  0.55249543  0.41636130
   0.02440000  0.17254999  0.00000000
   0.27439999  0.67255002  0.00000000
   0.52439999  0.17254999  0.00000000
   0.77439999  0.67255002  0.00000000
   0.21455000  0.43156997  0.01581000
   0.46455001  0.93156996  0.01581000
   0.71455008  0.43156997  0.01581000
   0.96455004  0.93156996  0.01581000
   0.20673000  0.89092997  0.02490000
   0.45673000  0.39092998  0.02490000
   0.70672997  0.89092997  0.02490000
   0.95673004  0.39092998  0.02490000
   0.19748000  0.22610000  0.04418000
   0.44748002  0.72610003  0.04418000
   0.69748003  0.22610000  0.04418000
   0.94747999  0.72610003  0.04418000
   0.11054000  0.67523994  0.06158000
   0.36054002  0.17523999  0.06158000
   0.61053998  0.67523994  0.06158000
   0.86053999  0.17523999  0.06158000
   0.10129000  0.01041000  0.08086000
   0.35129000  0.51041000  0.08086000
   0.60128998  0.01041000  0.08086000
   0.85128994  0.51041000  0.08086000
   0.09348000  0.46976000  0.08995000
   0.34348000  0.96975995  0.08995000
   0.59348001  0.46976000  0.08995000
   0.84347996  0.96975995  0.08995000
   0.03362000  0.22878000  0.10576000
   0.28361999  0.72877998  0.10576000
   0.53361997  0.22878000  0.10576000
   0.78362002  0.72877998  0.10576000
   0.04503149  0.83287269  0.13362148
   0.29626457  0.33396851  0.13346672
   0.54605305  0.83421269  0.13327910
   0.79592263  0.33294977  0.13418701
   0.23140367  0.09341003  0.14616782
   0.48148171  0.59347066  0.14662647
   0.73175488  0.09383569  0.14692833
   0.98149781  0.59334528  0.14693687
   0.22536342  0.55225566  0.16043902
   0.47623790  0.05133154  0.16070060
   0.72521555  0.55207031  0.16076479
   0.97506915  0.05252386  0.16077314
   0.21487230  0.89042839  0.18087970
   0.46453105  0.38955440  0.18070133
   0.71502305  0.88901332  0.18087496
   0.96521101  0.39032348  0.18172628
   0.12990094  0.33509241  0.19240621
   0.37869280  0.83533868  0.19323467
   0.62848609  0.33529992  0.19438441
   0.87974458  0.83659672  0.19373841
   0.11726071  0.67096909  0.21441616
   0.36727348  0.16999474  0.21280867
   0.61818941  0.67101545  0.21322422
   0.86783874  0.17002331  0.21624730
   0.11551385  0.13048778  0.22375393
   0.36343652  0.63111579  0.22372606
   0.61529542  0.13164161  0.22508934
   0.86422202  0.63213311  0.22542961
   0.04743138  0.89312143  0.23961850
   0.29714611  0.39595691  0.24053853
   0.54746847  0.89327782  0.23970464
   0.79736769  0.39393258  0.24158170
   0.06863311  0.49258233  0.26888808
   0.31467676  0.99314372  0.26825619
   0.56155737  0.49373645  0.26845887
   0.80995776  0.99342524  0.26857912
   0.25037081  0.75007123  0.28234546
   0.49719583  0.24978836  0.28110414
   0.74925357  0.74781757  0.28306648
   0.00518750  0.25191124  0.28123867
   0.24572815  0.21482334  0.29097855
   0.49393852  0.71177770  0.28952944
   0.74395984  0.21567349  0.29628960
   0.99479676  0.71101238  0.29368047
   0.23921990  0.55475929  0.32900366
   0.48606522  0.05283515  0.32666738
   0.72979502  0.54908730  0.32652963
   0.98980906  0.05625482  0.32779858
   0.14751589  0.00460561  0.33043335
   0.39830940  0.50510521  0.33371932
   0.64342087  0.00048869  0.33444670
   0.89629580  0.50201217  0.33030216
   0.13761064  0.32171785  0.35152515
   0.38648576  0.82257522  0.34786817
   0.61754711  0.31076084  0.35470314
   0.89103665  0.83770815  0.34227671
   0.13233893  0.80009543  0.35616808
   0.38051334  0.29932137  0.35541667
   0.62673619  0.79334524  0.35421169
   0.89095033  0.29379343  0.35560580
   0.06701259  0.54402450  0.37509235
   0.31634370  0.04290363  0.37461053
   0.57605186  0.54116971  0.37764933
   0.81594390  0.04211139  0.37510484
   0.80035832  0.68055079  0.40327051
   0.75815428  0.41900053  0.41752482
   0.76844979  0.69465354  0.44786062
   0.39081751  0.69202186  0.42834309
   0.47995094  0.85053279  0.47228583
   0.27556460  0.79485470  0.51699378
   0.45593362  0.79493593  0.53901364
   0.24138837  0.74432923  0.45059717
   0.31598117  0.86654524  0.45670917
   0.54402005  0.67338523  0.44496816
   0.36202552  0.63603518  0.49407855
   0.52755676  0.62438308  0.51379216
   0.64964225  0.82780650  0.47952261
   0.63133853  0.78360478  0.54882381
   0.76869814  0.71075820  0.52174282
   0.69110447  0.59892256  0.52288748
   0.29842667  0.78364756  0.47399430
   0.46472648  0.77212331  0.49492875
   0.37797681  0.71465503  0.47204874
   0.54233330  0.70020587  0.48889154
   0.63410973  0.75376371  0.50543105
   0.70910640  0.67639447  0.49886993
 
 position of ions in cartesian coordinates  (Angst):
   0.99045921  3.89727473  0.91670460
   4.22806168  9.97101307  0.91670460
   8.54575920  3.89727473  0.91670460
  11.78336239  9.97101307  0.91670460
   0.16045142 10.12552833  1.16817511
   4.47814847  4.05179071  1.16817511
   7.71575212 10.12552833  1.16817511
  12.03344917  4.05179071  1.16817511
   3.52054525  0.82335597  1.36714601
   6.75814868  6.89709425  1.36714601
  11.07584571  0.82335597  1.36714601
  14.31344795  6.89709425  1.36714601
   2.69052649  7.05173159  1.61861647
   7.00822400  0.97799331  1.61861647
  10.24582672  7.05173159  1.61861647
  14.56352424  0.97799331  1.61861647
   0.53521491 11.93836143  4.09533990
   4.85920002  5.87563354  4.10005929
   8.12294239 11.95964394  4.10446649
  12.40778856  5.87022950  4.15544280
   0.81193388  6.00942726  4.37690069
   4.04578267 12.09082470  4.36789461
   8.36993010  5.98485269  4.36099479
  11.59650867 12.09196071  4.38361123
  -0.18005406  2.79822118  4.58949004
   3.02928924  8.86857591  4.58291985
   7.36906218  2.78120370  4.57518821
  10.66497872  8.86685147  4.58000787
   3.35813401  2.93989214  4.81087339
   6.56343139  9.02787303  4.77928022
  10.93755984  2.98287054  4.88683178
  14.13629594  8.98955379  4.85651636
   1.16101155  7.79539564  7.53135139
   5.45836654  1.69923182  7.50243862
   8.69826641  7.87701304  7.27852482
  13.05828732  1.68120221  7.52440174
   1.48152473  1.96484514  7.48537471
   4.69388699  8.01813056  7.47934236
   8.98938579  1.92095096  7.52151560
  12.24899896  8.07130560  7.69023454
  -0.54842106 10.80683145  7.76872633
   3.73936332  4.72660147  7.79767685
   6.95983253 10.78632263  7.77035923
  11.41659797  4.64240449  7.99295604
  -0.27062515  4.95304190  8.05713600
   2.92839591 11.01885313  8.05459320
   7.22116852  4.85512731  7.99841967
  10.49984654 11.01509751  8.07965609
   9.97573305  6.71142516  9.98117983
   0.18232835  2.09604693  0.00000000
   3.41993094  8.16978550  0.00000000
   7.73762846  2.09604693  0.00000000
  10.97523117  8.16978550  0.00000000
   2.77584291  5.24248600  0.37900365
   6.01344586 11.31622410  0.37900365
  10.33114434  5.24248600  0.37900365
  13.56874656 11.31622410  0.37900365
   2.16152573 10.82255077  0.59691280
   6.47922326  4.74881268  0.59691280
   9.71682548 10.82255077  0.59691280
  14.03452396  4.74881268  0.59691280
   2.73983193  2.74654436  1.05910064
   5.97743511  8.82028293  1.05910064
  10.29513263  2.74654436  1.05910064
  13.53273487  8.82028293  1.05910064
   0.94100273  8.20246124  1.47622036
   5.25870037  2.12872362  1.47622036
   8.49630260  8.20246124  1.47622036
  12.81400013  2.12872362  1.47622036
   1.51930892  0.12645522  1.93840825
   4.75691175  6.20019341  1.93840825
   9.07460880  0.12645522  1.93840825
  12.31221104  6.20019341  1.93840825
   0.90515363  5.70639848  2.15631746
   4.14275646 11.78013610  2.15631746
   8.46045399  5.70639848  2.15631746
  11.69805622 11.78013610  2.15631746
   0.26091433  2.77909971  2.53532100
   3.49851704  8.85283756  2.53532100
   7.81621408  2.77909971  2.53532100
  11.05381775  8.85283756  2.53532100
  -0.21912849 10.11730130  3.20322777
   4.11601794  4.05687455  3.19951767
   7.35016083 10.13357894  3.19501998
  11.66725165  4.04449946  3.21678478
   3.39575679  1.13469610  3.50399343
   6.63447324  7.20917083  3.51498838
  10.95590419  1.13986678  3.52222469
  14.19015227  7.20764781  3.52242948
   2.80888824  6.70851254  3.84610853
   7.14079775  0.62354864  3.85237919
  10.36215427  6.70626110  3.85391807
  14.67714968  0.63803235  3.85411801
   2.28510261 10.81645782  4.33612057
   6.59858755  4.73210293  4.33184466
   9.84420916 10.79926831  4.33600694
  14.16333169  4.74144524  4.35641518
   1.60094976  4.07052712  4.61243881
   4.82003085 10.14725690  4.63229892
   9.13464662  4.07304785  4.65986085
  12.38986520 10.16253891  4.64437467
   1.04716966  8.15058123  5.14007021
   5.36611236  2.06500705  5.10153480
   8.61645306  8.15114431  5.11149640
  12.92992322  2.06535416  5.18396688
   1.60454450  1.58509725  5.36391888
   4.81007930  7.66646422  5.36325082
   9.15529787  1.59911332  5.39593195
  12.37615005  7.67882207  5.40408894
  -0.24793902 10.84917153  5.74423078
   4.06238518  4.80987717  5.76628604
   7.30775279 10.85107117  5.74629568
  11.62322009  4.78528676  5.79129341
   0.50505201  5.98363218  6.44589275
   3.68226561 12.06418993  6.43074497
   7.95218693  5.99765192  6.43560369
  11.16595491 12.06760963  6.43848626
   2.97310540  9.11147257  6.76849841
   7.24313251  3.03429825  6.73874107
  10.51395753  9.08409626  6.78578296
  -0.19370172  3.06008579  6.74196616
   3.48107030  2.60956151  6.97545428
   6.69492042  8.64630283  6.94071567
  11.00873210  2.61988864  7.10277295
  14.26401574  8.63700606  7.04022598
   3.01556377  6.73892537  7.88700763
   7.28767035  0.64181370  7.83100121
  10.43457474  6.67002498  7.82769915
  14.89584869  0.68335410  7.85811897
   2.22407913  0.05594659  7.92128058
   5.47313276  6.13575358  8.00005319
   9.72194791  0.00593629  8.01749039
  13.00134708  6.09818100  7.91813578
   1.73189366  3.90805993  8.42690164
   4.95157286  9.99221305  8.33923510
   8.99585652  3.77495995  8.50308569
  12.55929482 10.17603998  8.20519452
   1.13554187  9.71914033  8.53820398
   5.42648966  3.63599922  8.52019072
   8.61347230  9.63714262  8.49130453
  13.14546971  3.56884878  8.52472471
   0.42500257  6.60852477  8.99186400
   4.73380326  0.52117084  8.98031368
   8.11997501  6.57384627  9.05316105
  12.28391800  0.51154717  8.99216340
  11.35883559  8.26697468  9.66736229
  11.00360621  5.08979902 10.00907219
  10.86144614  8.43828744 10.73629426
   5.15803814  8.40631917 10.26841214
   6.33369097 10.33182702 11.32182504
   3.30542835  9.65547866 12.39358202
   6.03082478  9.65646545 12.92145093
   2.84357723  9.04172177 10.80189588
   3.83871443 10.52633779 10.94841529
   7.49314986  8.17993121 10.66695501
   4.78344484  7.72622229 11.84424888
   7.29730663  7.58467877 12.31683156
   8.92237509 10.05575996 11.49530807
   8.69353699  9.51882062 13.15662431
  10.84780443  8.63391846 12.50742804
   9.79611051  7.27539765 12.53486827
   3.66299262  9.51934019 11.36278117
   6.18832994  9.37934964 11.86463018
   4.93956150  8.68125516 11.31614162
   7.43869325  8.50573425 11.71990382
   8.76764264  9.15632689 12.11639554
   9.98445348  8.21648586 11.95910995
 


--------------------------------------------------------------------------------------------------------


 k-point  1 :   0.2500 0.2500 0.0000  plane waves:  111683
 k-point  2 :  -0.2500 0.2500 0.0000  plane waves:  111725

 maximum and minimum number of plane-waves per node :     18644    18587

 maximum number of plane-waves:    111725
 maximum index in each direction: 
   IXMAX=   27   IYMAX=   21   IZMAX=   43
   IXMIN=  -27   IYMIN=  -22   IZMIN=  -43


 real space projection operators:
  total allocation   :      22446.86 KBytes
  max/ min on nodes  :       3747.95       3734.14


 parallel 3D FFT for wavefunctions:
    minimum data exchange during FFTs selected (reduces bandwidth)
 parallel 3D FFT for charge:
    minimum data exchange during FFTs selected (reduces bandwidth)


 total amount of memory used by VASP MPI-rank0   175104. kBytes
=======================================================================

   base      :      30000. kBytes
   nonlr-proj:      11816. kBytes
   fftplans  :       9317. kBytes
   grid      :      26149. kBytes
   one-center:        870. kBytes
   wavefun   :      96952. kBytes
 
     INWAV:  cpu time    8.6701: real time    8.7316
 Broyden mixing: mesh for mixing (old mesh)
   NGX = 55   NGY = 45   NGZ = 87
  (NGX  =168   NGY  =140   NGZ  =280)
  gives a total of 215325 points

 initial charge density was supplied:
 number of electron    1214.0000048 magnetization      -0.0000000
 keeping initial charge density in first step


--------------------------------------------------------------------------------------------------------


 Maximum index for non-local projection operator          433
 Maximum index for augmentation-charges          481 (set IRDMAX)


--------------------------------------------------------------------------------------------------------


 First call to EWALD:  gamma=   0.108
 Maximum number of real-space cells 3x 4x 2
 Maximum number of reciprocal cells 3x 2x 4

    FEWALD:  cpu time    0.0053: real time    0.0053


--------------------------------------- Iteration      1(   1)  ---------------------------------------


    POTLOK:  cpu time    0.2231: real time    0.2245
    SETDIJ:  cpu time    0.0222: real time    0.0223
     EDDAV:  cpu time   27.8978: real time   27.9690
       DOS:  cpu time    0.0006: real time    0.0006
    CHARGE:  cpu time    1.2289: real time    1.2469
    MIXING:  cpu time    0.0066: real time    0.0069
    --------------------------------------------
      LOOP:  cpu time   29.3793: real time   29.4702

 eigenvalue-minimisations  :  6304
 total energy-change (2. order) :-0.1377788E+04  (-0.1324952E+00)
 number of electron    1214.0000048 magnetization       0.0000000
 augmentation part       74.0303350 magnetization       0.0000011

 Broyden mixing:
  rms(total) = 0.94397E-01    rms(broyden)= 0.94317E-01
  rms(prec ) = 0.95602E-01
  weight for this iteration     100.00

 Free energy of the ion-electron system (eV)
  ---------------------------------------------------
  alpha Z        PSCENC =      2166.38705829
  Ewald energy   TEWEN  =    389411.30133732
  -Hartree energ DENC   =   -486561.33439135
  -exchange      EXHF   =         0.00000000
  -V(xc)+E(xc)   XCENC  =      5337.96474879
  PAW double counting   =    130378.26412628  -129700.52269908
  entropy T*S    EENTRO =        -0.00000000
  eigenvalues    EBANDS =    -18765.11394792
  atomic energy  EATOM  =    106355.26625530
  Solvation  Ediel_sol  =         0.00000000
  ---------------------------------------------------
  free energy    TOTEN  =     -1377.78751237 eV

  energy without entropy =    -1377.78751237  energy(sigma->0) =    -1377.78751237


--------------------------------------------------------------------------------------------------------




--------------------------------------- Iteration      1(   2)  ---------------------------------------


    POTLOK:  cpu time    0.2151: real time    0.2164
    SETDIJ:  cpu time    0.0218: real time    0.0218
     EDDAV:  cpu time   27.6213: real time   27.6914
       DOS:  cpu time    0.0006: real time    0.0006
    CHARGE:  cpu time    1.2452: real time    1.2614
    MIXING:  cpu time    0.0190: real time    0.0191
    --------------------------------------------
      LOOP:  cpu time   29.1229: real time   29.2108

 eigenvalue-minimisations  :  6240
 total energy-change (2. order) :-0.1732149E+01  (-0.1180499E+00)
 number of electron    1214.0000048 magnetization       0.0000000
 augmentation part       73.9516193 magnetization      -0.0000002

 Broyden mixing:
  rms(total) = 0.40923E-01    rms(broyden)= 0.40805E-01
  rms(prec ) = 0.43041E-01
  weight for this iteration     100.00

 eigenvalues of (default mixing * dielectric matrix)
  average eigenvalue GAMMA=   0.7350
  0.7350

 Free energy of the ion-electron system (eV)
  ---------------------------------------------------
  alpha Z        PSCENC =      2166.38705829
  Ewald energy   TEWEN  =    389411.30133732
  -Hartree energ DENC   =   -486563.14710864
  -exchange      EXHF   =         0.00000000
  -V(xc)+E(xc)   XCENC  =      5338.06410257
  PAW double counting   =    130235.83886751  -129557.06188822
  entropy T*S    EENTRO =        -0.00000000
  eigenvalues    EBANDS =    -18766.16828516
  atomic energy  EATOM  =    106355.26625530
  Solvation  Ediel_sol  =         0.00000000
  ---------------------------------------------------
  free energy    TOTEN  =     -1379.51966103 eV

  energy without entropy =    -1379.51966103  energy(sigma->0) =    -1379.51966103


--------------------------------------------------------------------------------------------------------




--------------------------------------- Iteration      1(   3)  ---------------------------------------


    POTLOK:  cpu time    0.2218: real time    0.2253
    SETDIJ:  cpu time    0.0220: real time    0.0221
     EDDAV:  cpu time   29.9631: real time   30.0519
       DOS:  cpu time    0.0005: real time    0.0005
    CHARGE:  cpu time    1.2509: real time    1.2541
    MIXING:  cpu time    0.0063: real time    0.0063
    --------------------------------------------
      LOOP:  cpu time   31.4646: real time   31.5601

 eigenvalue-minimisations  :  6848
 total energy-change (2. order) :-0.9630281E-02  (-0.4261981E-02)
 number of electron    1214.0000048 magnetization       0.0000000
 augmentation part       73.9847942 magnetization      -0.0000003

 Broyden mixing:
  rms(total) = 0.27520E-01    rms(broyden)= 0.27503E-01
  rms(prec ) = 0.27923E-01
  weight for this iteration     100.00

 eigenvalues of (default mixing * dielectric matrix)
  average eigenvalue GAMMA=   0.6920
  0.6920  0.6920

 Free energy of the ion-electron system (eV)
  ---------------------------------------------------
  alpha Z        PSCENC =      2166.38705829
  Ewald energy   TEWEN  =    389411.30133732
  -Hartree energ DENC   =   -486560.59059439
  -exchange      EXHF   =         0.00000000
  -V(xc)+E(xc)   XCENC  =      5337.86676229
  PAW double counting   =    130262.47692938  -129582.95043125
  entropy T*S    EENTRO =        -0.00000000
  eigenvalues    EBANDS =    -18769.28660825
  atomic energy  EATOM  =    106355.26625530
  Solvation  Ediel_sol  =         0.00000000
  ---------------------------------------------------
  free energy    TOTEN  =     -1379.52929131 eV

  energy without entropy =    -1379.52929131  energy(sigma->0) =    -1379.52929131


--------------------------------------------------------------------------------------------------------




--------------------------------------- Iteration      1(   4)  ---------------------------------------


    POTLOK:  cpu time    0.2134: real time    0.2151
    SETDIJ:  cpu time    0.0218: real time    0.0218
     EDDAV:  cpu time   25.5047: real time   25.5726
       DOS:  cpu time    0.0010: real time    0.0009
    CHARGE:  cpu time    1.2447: real time    1.2483
    MIXING:  cpu time    0.0070: real time    0.0070
    --------------------------------------------
      LOOP:  cpu time   26.9926: real time   27.0657

 eigenvalue-minimisations  :  5632
 total energy-change (2. order) :-0.5140228E-04  (-0.2121073E-03)
 number of electron    1214.0000048 magnetization       0.0000000
 augmentation part       73.9814746 magnetization      -0.0000001

 Broyden mixing:
  rms(total) = 0.22225E-01    rms(broyden)= 0.22223E-01
  rms(prec ) = 0.22519E-01
  weight for this iteration     100.00

 eigenvalues of (default mixing * dielectric matrix)
  average eigenvalue GAMMA=   0.6834
  0.7691  0.7691  0.5119

 Free energy of the ion-electron system (eV)
  ---------------------------------------------------
  alpha Z        PSCENC =      2166.38705829
  Ewald energy   TEWEN  =    389411.30133732
  -Hartree energ DENC   =   -486561.26376775
  -exchange      EXHF   =         0.00000000
  -V(xc)+E(xc)   XCENC  =      5337.93419814
  PAW double counting   =    130291.71602291  -129612.14191239
  entropy T*S    EENTRO =        -0.00000000
  eigenvalues    EBANDS =    -18768.72853454
  atomic energy  EATOM  =    106355.26625530
  Solvation  Ediel_sol  =         0.00000000
  ---------------------------------------------------
  free energy    TOTEN  =     -1379.52934271 eV

  energy without entropy =    -1379.52934271  energy(sigma->0) =    -1379.52934271


--------------------------------------------------------------------------------------------------------




--------------------------------------- Iteration      1(   5)  ---------------------------------------


    POTLOK:  cpu time    0.2179: real time    0.2195
    SETDIJ:  cpu time    0.0216: real time    0.0216
     EDDAV:  cpu time   29.1615: real time   29.2533
       DOS:  cpu time    0.0006: real time    0.0006
    CHARGE:  cpu time    1.2433: real time    1.2468
    MIXING:  cpu time    0.0069: real time    0.0069
    --------------------------------------------
      LOOP:  cpu time   30.6518: real time   30.7486

 eigenvalue-minimisations  :  6656
 total energy-change (2. order) :-0.8424366E-05  (-0.1916867E-04)
 number of electron    1214.0000048 magnetization       0.0000000
 augmentation part       73.9872361 magnetization      -0.0000001

 Broyden mixing:
  rms(total) = 0.18729E-01    rms(broyden)= 0.18729E-01
  rms(prec ) = 0.18980E-01
  weight for this iteration     100.00

 eigenvalues of (default mixing * dielectric matrix)
  average eigenvalue GAMMA=   0.7256
  0.9054  0.9054  0.5458  0.5458

 Free energy of the ion-electron system (eV)
  ---------------------------------------------------
  alpha Z        PSCENC =      2166.38705829
  Ewald energy   TEWEN  =    389411.30133732
  -Hartree energ DENC   =   -486561.29534324
  -exchange      EXHF   =         0.00000000
  -V(xc)+E(xc)   XCENC  =      5337.93805052
  PAW double counting   =    130309.29894990  -129629.69027769
  entropy T*S    EENTRO =        -0.00000000
  eigenvalues    EBANDS =    -18768.73538154
  atomic energy  EATOM  =    106355.26625530
  Solvation  Ediel_sol  =         0.00000000
  ---------------------------------------------------
  free energy    TOTEN  =     -1379.52935114 eV

  energy without entropy =    -1379.52935114  energy(sigma->0) =    -1379.52935114


--------------------------------------------------------------------------------------------------------




--------------------------------------- Iteration      1(   6)  ---------------------------------------


    POTLOK:  cpu time    0.2128: real time    0.2137
    SETDIJ:  cpu time    0.0216: real time    0.0216
     EDDAV:  cpu time   29.3890: real time   29.4979
       DOS:  cpu time    0.0007: real time    0.0007
    CHARGE:  cpu time    1.2472: real time    1.2640
    MIXING:  cpu time    0.0071: real time    0.0071
    --------------------------------------------
      LOOP:  cpu time   30.8783: real time   31.0050

 eigenvalue-minimisations  :  6704
 total energy-change (2. order) :-0.1308905E-04  (-0.2245244E-05)
 number of electron    1214.0000048 magnetization       0.0000000
 augmentation part       73.9886598 magnetization       0.0000026

 Broyden mixing:
  rms(total) = 0.16146E-01    rms(broyden)= 0.16146E-01
  rms(prec ) = 0.16375E-01
  weight for this iteration     100.00

 eigenvalues of (default mixing * dielectric matrix)
  average eigenvalue GAMMA=   0.8029
  1.1373  1.1373  0.5245  0.6077  0.6077

 Free energy of the ion-electron system (eV)
  ---------------------------------------------------
  alpha Z        PSCENC =      2166.38705829
  Ewald energy   TEWEN  =    389411.30133732
  -Hartree energ DENC   =   -486561.38214388
  -exchange      EXHF   =         0.00000000
  -V(xc)+E(xc)   XCENC  =      5337.94589506
  PAW double counting   =    130323.78325105  -129644.16337780
  entropy T*S    EENTRO =        -0.00000000
  eigenvalues    EBANDS =    -18768.66763957
  atomic energy  EATOM  =    106355.26625530
  Solvation  Ediel_sol  =         0.00000000
  ---------------------------------------------------
  free energy    TOTEN  =     -1379.52936423 eV

  energy without entropy =    -1379.52936423  energy(sigma->0) =    -1379.52936423


--------------------------------------------------------------------------------------------------------




--------------------------------------- Iteration      1(   7)  ---------------------------------------


    POTLOK:  cpu time    0.2126: real time    0.2133
    SETDIJ:  cpu time    0.0216: real time    0.0216
     EDDAV:  cpu time   29.5170: real time   29.5995
       DOS:  cpu time    0.0006: real time    0.0006
    CHARGE:  cpu time    1.2717: real time    1.2763
    MIXING:  cpu time    0.0076: real time    0.0076
    --------------------------------------------
      LOOP:  cpu time   31.0310: real time   31.1190

 eigenvalue-minimisations  :  6656
 total energy-change (2. order) :-0.7936309E-05  (-0.2394965E-05)
 number of electron    1214.0000048 magnetization       0.0000000
 augmentation part       73.9900095 magnetization       0.0000006

 Broyden mixing:
  rms(total) = 0.12776E-01    rms(broyden)= 0.12776E-01
  rms(prec ) = 0.12955E-01
  weight for this iteration     100.00

 eigenvalues of (default mixing * dielectric matrix)
  average eigenvalue GAMMA=   0.8685
  1.3586  1.3586  0.6918  0.6918  0.5550  0.5550

 Free energy of the ion-electron system (eV)
  ---------------------------------------------------
  alpha Z        PSCENC =      2166.38705829
  Ewald energy   TEWEN  =    389411.30133732
  -Hartree energ DENC   =   -486561.39476260
  -exchange      EXHF   =         0.00000000
  -V(xc)+E(xc)   XCENC  =      5337.95124154
  PAW double counting   =    130341.67464559  -129662.04209165
  entropy T*S    EENTRO =        -0.00000000
  eigenvalues    EBANDS =    -18768.67305597
  atomic energy  EATOM  =    106355.26625530
  Solvation  Ediel_sol  =         0.00000000
  ---------------------------------------------------
  free energy    TOTEN  =     -1379.52937216 eV

  energy without entropy =    -1379.52937216  energy(sigma->0) =    -1379.52937216


--------------------------------------------------------------------------------------------------------




--------------------------------------- Iteration      1(   8)  ---------------------------------------


    POTLOK:  cpu time    0.2119: real time    0.2135
    SETDIJ:  cpu time    0.0217: real time    0.0217
     EDDAV:  cpu time   27.9552: real time   28.0259
       DOS:  cpu time    0.0005: real time    0.0005
    CHARGE:  cpu time    1.2094: real time    1.2271
    MIXING:  cpu time    0.0078: real time    0.0078
    --------------------------------------------
      LOOP:  cpu time   29.4066: real time   29.4966

 eigenvalue-minimisations  :  6240
 total energy-change (2. order) :-0.5796785E-05  (-0.1872253E-05)
 number of electron    1214.0000048 magnetization       0.0000000
 augmentation part       73.9914825 magnetization      -0.0000000

 Broyden mixing:
  rms(total) = 0.10335E-01    rms(broyden)= 0.10335E-01
  rms(prec ) = 0.10472E-01
  weight for this iteration     100.00

 eigenvalues of (default mixing * dielectric matrix)
  average eigenvalue GAMMA=   0.9195
  1.5875  1.5875  0.7723  0.7723  0.5368  0.5899  0.5899

 Free energy of the ion-electron system (eV)
  ---------------------------------------------------
  alpha Z        PSCENC =      2166.38705829
  Ewald energy   TEWEN  =    389411.30133732
  -Hartree energ DENC   =   -486561.40583672
  -exchange      EXHF   =         0.00000000
  -V(xc)+E(xc)   XCENC  =      5337.95443473
  PAW double counting   =    130354.83647706  -129675.19367028
  entropy T*S    EENTRO =        -0.00000000
  eigenvalues    EBANDS =    -18768.67543366
  atomic energy  EATOM  =    106355.26625530
  Solvation  Ediel_sol  =         0.00000000
  ---------------------------------------------------
  free energy    TOTEN  =     -1379.52937796 eV

  energy without entropy =    -1379.52937796  energy(sigma->0) =    -1379.52937796


--------------------------------------------------------------------------------------------------------




--------------------------------------- Iteration      1(   9)  ---------------------------------------


    POTLOK:  cpu time    0.2131: real time    0.2138
    SETDIJ:  cpu time    0.0216: real time    0.0217
     EDDAV:  cpu time   20.9825: real time   21.0351
       DOS:  cpu time    0.0007: real time    0.0006
    CHARGE:  cpu time    1.2496: real time    1.2528
    MIXING:  cpu time    0.0081: real time    0.0081
    --------------------------------------------
      LOOP:  cpu time   22.4756: real time   22.5321

 eigenvalue-minimisations  :  4224
 total energy-change (2. order) :-0.4581467E-05  (-0.4646116E-06)
 number of electron    1214.0000048 magnetization       0.0000000
 augmentation part       73.9925020 magnetization       0.0000003

 Broyden mixing:
  rms(total) = 0.88571E-02    rms(broyden)= 0.88571E-02
  rms(prec ) = 0.89767E-02
  weight for this iteration     100.00

 eigenvalues of (default mixing * dielectric matrix)
  average eigenvalue GAMMA=   1.0567
  2.0637  2.0637  0.9104  0.9104  0.6673  0.6673  0.5853  0.5853

 Free energy of the ion-electron system (eV)
  ---------------------------------------------------
  alpha Z        PSCENC =      2166.38705829
  Ewald energy   TEWEN  =    389411.30133732
  -Hartree energ DENC   =   -486561.40992919
  -exchange      EXHF   =         0.00000000
  -V(xc)+E(xc)   XCENC  =      5337.95572167
  PAW double counting   =    130362.84472808  -129683.19920512
  entropy T*S    EENTRO =        -0.00000000
  eigenvalues    EBANDS =    -18768.67534889
  atomic energy  EATOM  =    106355.26625530
  Solvation  Ediel_sol  =         0.00000000
  ---------------------------------------------------
  free energy    TOTEN  =     -1379.52938254 eV

  energy without entropy =    -1379.52938254  energy(sigma->0) =    -1379.52938254


--------------------------------------------------------------------------------------------------------




--------------------------------------- Iteration      1(  10)  ---------------------------------------


    POTLOK:  cpu time    0.2133: real time    0.2140
    SETDIJ:  cpu time    0.0217: real time    0.0217
     EDDAV:  cpu time   28.4979: real time   28.5842
       DOS:  cpu time    0.0006: real time    0.0006
    CHARGE:  cpu time    1.2500: real time    1.2532
    MIXING:  cpu time    0.0085: real time    0.0085
    --------------------------------------------
      LOOP:  cpu time   29.9920: real time   30.0822

 eigenvalue-minimisations  :  6368
 total energy-change (2. order) :-0.5765571E-05  (-0.2039004E-05)
 number of electron    1214.0000048 magnetization       0.0000000
 augmentation part       73.9937658 magnetization       0.0000000

 Broyden mixing:
  rms(total) = 0.54407E-02    rms(broyden)= 0.54407E-02
  rms(prec ) = 0.55184E-02
  weight for this iteration     100.00

 eigenvalues of (default mixing * dielectric matrix)
  average eigenvalue GAMMA=   1.1367
[...]
   -.227E+03 -.173E+03 -.165E+04   0.240E+03 0.182E+03 0.164E+04   -.123E+02 -.867E+01 0.532E+01   0.382E-03 -.970E-04 0.811E-04
   -.145E+03 0.279E+03 -.178E+04   0.153E+03 -.294E+03 0.179E+04   -.828E+01 0.142E+02 -.126E+02   0.273E-03 0.467E-03 -.129E-03
   -.273E+02 -.440E+02 -.299E+03   0.271E+02 0.451E+02 0.300E+03   0.193E+00 -.107E+01 -.176E+01   0.101E-03 -.154E-04 -.318E-04
   0.809E+01 0.267E+02 -.213E+03   -.700E+01 -.280E+02 0.208E+03   -.111E+01 0.128E+01 0.495E+01   0.892E-05 -.490E-05 0.162E-04
   -.191E+00 -.729E+02 -.216E+03   0.869E+00 0.776E+02 0.213E+03   -.677E+00 -.466E+01 0.256E+01   0.244E-04 -.197E-04 0.295E-04
   0.404E+02 -.136E+02 -.254E+03   -.423E+02 0.143E+02 0.259E+03   0.184E+01 -.701E+00 -.514E+01   -.158E-04 -.134E-04 0.267E-04
   0.175E+02 -.293E+02 -.247E+03   -.183E+02 0.307E+02 0.252E+03   0.772E+00 -.141E+01 -.520E+01   0.294E-04 -.119E-04 0.320E-04
   0.569E+02 0.227E+02 -.234E+03   -.610E+02 -.251E+02 0.231E+03   0.414E+01 0.237E+01 0.270E+01   -.199E-04 -.177E-04 0.310E-04
   0.127E+02 -.595E+02 -.239E+03   -.118E+02 0.645E+02 0.237E+03   -.899E+00 -.501E+01 0.195E+01   -.418E-05 -.124E-04 0.241E-04
   0.185E+02 0.155E+02 -.208E+03   -.183E+02 -.172E+02 0.202E+03   -.183E+00 0.162E+01 0.525E+01   0.224E-04 0.710E-05 0.356E-04
   0.288E+02 0.663E+02 -.248E+03   -.296E+02 -.710E+02 0.250E+03   0.784E+00 0.476E+01 -.259E+01   0.132E-05 0.129E-04 0.197E-04
   0.203E+02 0.630E+02 -.246E+03   -.211E+02 -.675E+02 0.249E+03   0.720E+00 0.444E+01 -.288E+01   0.419E-04 0.233E-04 0.414E-04
   -.146E+02 -.754E+02 -.213E+03   0.154E+02 0.799E+02 0.210E+03   -.752E+00 -.445E+01 0.302E+01   0.456E-04 -.169E-04 0.426E-04
   -.431E+01 -.370E+02 -.240E+03   0.398E+01 0.388E+02 0.245E+03   0.345E+00 -.182E+01 -.511E+01   0.469E-04 -.197E-04 0.406E-04
   -.640E+02 -.273E+02 -.243E+03   0.682E+02 0.292E+02 0.246E+03   -.417E+01 -.200E+01 -.269E+01   0.485E-04 -.180E-04 0.348E-04
   -.591E+01 0.519E+02 -.253E+03   0.514E+01 -.559E+02 0.256E+03   0.773E+00 0.402E+01 -.278E+01   0.677E-04 0.186E-04 0.583E-04
   0.132E+03 -.399E+02 -.962E+03   -.132E+03 0.398E+02 0.962E+03   -.197E+00 0.659E-01 -.176E+00   -.286E-04 -.538E-04 0.106E-03
   0.452E+02 -.920E+02 -.926E+03   -.452E+02 0.918E+02 0.926E+03   0.547E-01 0.199E+00 -.127E+00   0.108E-03 -.333E-04 0.121E-03
   0.849E+02 0.715E+02 -.935E+03   -.848E+02 -.713E+02 0.935E+03   -.161E+00 -.262E+00 -.603E+00   0.331E-04 0.101E-05 0.850E-04
   0.464E+02 0.397E+02 -.919E+03   -.462E+02 -.391E+02 0.919E+03   -.193E+00 -.603E+00 0.141E+00   0.142E-03 0.259E-04 0.158E-03
   -.308E+02 -.117E+03 -.922E+03   0.305E+02 0.118E+03 0.922E+03   0.400E+00 -.300E+00 -.336E+00   0.193E-03 -.274E-04 0.192E-03
   -.986E+02 -.117E+02 -.969E+03   0.991E+02 0.124E+02 0.963E+03   -.479E+00 -.756E+00 0.560E+01   0.293E-03 0.244E-04 0.193E-03
 -----------------------------------------------------------------------------------------------
   0.319E+02 0.236E+02 0.639E+02   -.142E-13 0.483E-12 -.307E-11   -.320E+02 -.240E+02 -.639E+02   0.256E-02 0.106E-02 0.194E-01
 
 
 POSITION                                       TOTAL-FORCE (eV/Angst)
 -----------------------------------------------------------------------------------
      0.99046      3.89727      0.91670        -1.496050     -1.863874     -0.681364
      4.22806      9.97101      0.91670        -1.499889     -1.871026     -0.752494
      8.54576      3.89727      0.91670        -1.347526     -1.934883     -0.781589
     11.78336      9.97101      0.91670        -1.339592     -1.826803     -0.738803
      0.16045     10.12553      1.16818        -0.263788      1.657432      0.392139
      4.47815      4.05179      1.16818        -0.205320      1.713026      0.197227
      7.71575     10.12553      1.16818        -0.094056      1.773193      0.135488
     12.03345      4.05179      1.16818        -0.126344      1.834737      0.557127
      3.52055      0.82336      1.36715        -0.852399     -0.880642      1.556871
      6.75815      6.89709      1.36715        -0.841533     -0.873767      1.531167
     11.07585      0.82336      1.36715        -0.741843     -0.828468      1.724660
     14.31345      6.89709      1.36715        -0.968211     -0.956028      1.782917
      2.69053      7.05173      1.61862         1.450712      0.460671     -2.489363
      7.00822      0.97799      1.61862         1.579595      0.433943     -2.481472
     10.24583      7.05173      1.61862         1.774040      0.408433     -2.442299
     14.56352      0.97799      1.61862         1.513286      0.501238     -2.440701
      0.53521     11.93836      4.09534         0.003129     -0.000450     -0.000905
      4.85920      5.87563      4.10006        -0.001886      0.002213      0.003360
      8.12294     11.95964      4.10447        -0.007181     -0.001489      0.005728
     12.40779      5.87023      4.15544         0.004742      0.008506     -0.003749
      0.81193      6.00943      4.37690        -0.001187      0.004257      0.000670
      4.04578     12.09082      4.36789         0.005468     -0.001451     -0.002019
      8.36993      5.98485      4.36099        -0.005668     -0.002875      0.006741
     11.59651     12.09196      4.38361        -0.001295      0.001194      0.001710
     -0.18005      2.79822      4.58949        -0.001856     -0.003087     -0.000460
      3.02929      8.86858      4.58292        -0.002958      0.002818      0.000514
      7.36906      2.78120      4.57519         0.000476     -0.003791      0.004855
     10.66498      8.86685      4.58001        -0.007713      0.010255      0.004205
      3.35813      2.93989      4.81087         0.006867     -0.001786     -0.000747
      6.56343      9.02787      4.77928        -0.000146      0.001580      0.004207
     10.93756      2.98287      4.88683        -0.006870     -0.004957      0.001432
     14.13630      8.98955      4.85652        -0.004210      0.005012      0.004014
      1.16101      7.79540      7.53135         0.001189      0.005484     -0.005548
      5.45837      1.69923      7.50244         0.007499      0.004624     -0.007167
      8.69827      7.87701      7.27852        -0.011212      0.004402     -0.000198
     13.05829      1.68120      7.52440        -0.003255     -0.009057      0.003952
      1.48152      1.96485      7.48537        -0.001700     -0.004977     -0.002234
      4.69389      8.01813      7.47934         0.003628      0.001373     -0.000640
      8.98939      1.92095      7.52152        -0.001337     -0.009190     -0.002909
     12.24900      8.07131      7.69023         0.002308      0.017263      0.000871
     -0.54842     10.80683      7.76873        -0.006937     -0.005008      0.004193
      3.73936      4.72660      7.79768         0.006170      0.004729      0.001025
      6.95983     10.78632      7.77036        -0.001045     -0.005491      0.006143
     11.41660      4.64240      7.99296        -0.001831     -0.007415     -0.004732
     -0.27063      4.95304      8.05714         0.003517      0.007843     -0.005181
      2.92840     11.01885      8.05459         0.001314     -0.002297     -0.005057
      7.22117      4.85513      7.99842        -0.007993     -0.000829      0.008239
     10.49985     11.01510      8.07966         0.001435     -0.004630      0.003487
      9.97573      6.71143      9.98118        -0.016061      0.015729     -0.010107
      0.18233      2.09605      0.00000         0.270458      0.970319      1.262596
      3.41993      8.16979      0.00000         0.292330      0.998250      1.264675
      7.73763      2.09605      0.00000         0.258733      0.982005      1.280689
     10.97523      8.16979      0.00000         0.234412      0.982129      1.283746
      2.77584      5.24249      0.37900         0.002805     -0.928750      0.580593
      6.01345     11.31622      0.37900        -0.036154     -0.926895      0.582623
     10.33114      5.24249      0.37900        -0.112052     -0.923922      0.575442
     13.56875     11.31622      0.37900        -0.048530     -0.925129      0.564602
      2.16153     10.82255      0.59691         0.417661      1.208742     -0.190640
      6.47922      4.74881      0.59691         0.397648      1.224010     -0.188714
      9.71683     10.82255      0.59691         0.344885      1.183590     -0.195277
     14.03452      4.74881      0.59691         0.391456      1.171172     -0.222944
      2.73983      2.74654      1.05910         1.193642     -1.028742     -0.435146
      5.97744      8.82028      1.05910         1.166146     -1.060170     -0.408078
     10.29513      2.74654      1.05910         1.115102     -1.014983     -0.454419
     13.53273      8.82028      1.05910         1.132010     -1.016113     -0.468488
      0.94100      8.20246      1.47622        -1.099713     -0.303854     -0.903940
      5.25870      2.12872      1.47622        -1.117190     -0.302697     -0.893441
      8.49630      8.20246      1.47622        -1.192011     -0.320578     -0.889691
     12.81400      2.12872      1.47622        -1.153104     -0.309594     -0.911988
      1.51931      0.12646      1.93841         0.358591     -0.070848      0.199654
      4.75691      6.20019      1.93841         0.425207     -0.011221      0.210729
      9.07461      0.12646      1.93841         0.416875     -0.019036      0.242956
     12.31221      6.20019      1.93841         0.342047     -0.083726      0.357160
      0.90515      5.70640      2.15632        -0.373888      0.332706      0.116523
      4.14276     11.78014      2.15632        -0.348145      0.330264      0.142207
      8.46045      5.70640      2.15632        -0.411904      0.305325      0.186622
     11.69806     11.78014      2.15632        -0.409190      0.325096      0.171518
      0.26091      2.77910      2.53532         0.223143      0.404114      0.503259
      3.49852      8.85284      2.53532         0.237861      0.422987      0.577068
      7.81621      2.77910      2.53532         0.236415      0.418919      0.483476
     11.05382      8.85284      2.53532         0.266614      0.403683      0.493187
     -0.21913     10.11730      3.20323         0.005926     -0.007771     -0.007939
      4.11602      4.05687      3.19952        -0.000461     -0.006885     -0.022948
      7.35016     10.13358      3.19502         0.004747     -0.003088     -0.006343
     11.66725      4.04450      3.21678         0.005992      0.000438      0.000201
      3.39576      1.13470      3.50399         0.003196      0.014952     -0.003167
      6.63447      7.20917      3.51499        -0.002122     -0.008294     -0.001719
     10.95590      1.13987      3.52222         0.003710      0.015829      0.009525
     14.19015      7.20765      3.52243        -0.006321      0.005636      0.003053
      2.80889      6.70851      3.84611         0.008546      0.001471     -0.001284
      7.14080      0.62355      3.85238         0.008841     -0.000618      0.024921
     10.36215      6.70626      3.85392         0.001650     -0.009289     -0.006888
     14.67715      0.63803      3.85412        -0.015369     -0.017953      0.003747
      2.28510     10.81646      4.33612        -0.010279     -0.011308     -0.001060
      6.59859      4.73210      4.33184        -0.002674      0.006252     -0.017923
      9.84421     10.79927      4.33601        -0.001308     -0.013274     -0.000303
     14.16333      4.74145      4.35642        -0.008826      0.000190      0.000347
      1.60095      4.07053      4.61244         0.022774     -0.014071     -0.008641
      4.82003     10.14726      4.63230        -0.005794      0.000929      0.002013
      9.13465      4.07305      4.65986         0.007007      0.003185      0.004752
     12.38987     10.16254      4.64437         0.009148     -0.010659      0.004383
      1.04717      8.15058      5.14007        -0.005891      0.013230     -0.004760
      5.36611      2.06501      5.10153        -0.015564      0.001037     -0.008933
      8.61645      8.15114      5.11150         0.002077     -0.010064      0.003376
     12.92992      2.06535      5.18397         0.001869      0.003499     -0.000860
      1.60454      1.58510      5.36392         0.004692      0.003172     -0.001896
      4.81008      7.66646      5.36325         0.014198     -0.003550      0.006892
      9.15530      1.59911      5.39593        -0.004698     -0.012296     -0.005196
     12.37615      7.67882      5.40409        -0.007508      0.001607     -0.002143
     -0.24794     10.84917      5.74423         0.006848     -0.006670      0.009014
      4.06239      4.80988      5.76629        -0.007098      0.003585      0.003887
      7.30775     10.85107      5.74630        -0.006880      0.006288     -0.013179
     11.62322      4.78529      5.79129        -0.002147      0.004254      0.001546
      0.50505      5.98363      6.44589         0.012888     -0.005122      0.003532
      3.68227     12.06419      6.43074        -0.008591     -0.003415      0.016212
      7.95219      5.99765      6.43560        -0.000215     -0.008018     -0.002171
     11.16595     12.06761      6.43849         0.003994      0.014016     -0.009529
      2.97311      9.11147      6.76850        -0.010956      0.021050      0.014551
      7.24313      3.03430      6.73874         0.018267      0.002074     -0.012712
     10.51396      9.08410      6.78578         0.001186     -0.006891     -0.007200
     -0.19370      3.06009      6.74197         0.002043     -0.002786      0.003195
      3.48107      2.60956      6.97545        -0.000931     -0.011536      0.000338
      6.69492      8.64630      6.94072        -0.009776     -0.010113      0.006419
     11.00873      2.61989      7.10277        -0.005214      0.005960      0.005562
     14.26402      8.63701      7.04023         0.000790      0.001461     -0.000184
      3.01556      6.73893      7.88701        -0.020253     -0.009832     -0.015990
      7.28767      0.64181      7.83100         0.004713     -0.000569      0.008506
     10.43457      6.67002      7.82770        -0.008054     -0.009641     -0.000268
     14.89585      0.68335      7.85812        -0.007372      0.002506     -0.000349
      2.22408      0.05595      7.92128         0.001488     -0.000383     -0.003093
      5.47313      6.13575      8.00005         0.007163     -0.004589     -0.006763
      9.72195      0.00594      8.01749        -0.003994      0.004508     -0.003187
     13.00135      6.09818      7.91814        -0.007246      0.002182      0.010478
      1.73189      3.90806      8.42690        -0.007626      0.003614     -0.001325
      4.95157      9.99221      8.33924        -0.004356     -0.001031      0.010089
      8.99586      3.77496      8.50309        -0.004487      0.002797      0.002603
     12.55929     10.17604      8.20519        -0.004185      0.003607      0.001074
      1.13554      9.71914      8.53820        -0.001766     -0.007128      0.002873
      5.42649      3.63600      8.52019        -0.005280      0.007153     -0.002556
      8.61347      9.63714      8.49130        -0.012452     -0.012257     -0.003072
     13.14547      3.56885      8.52472         0.000143     -0.020662     -0.004179
      0.42500      6.60852      8.99186        -0.000891     -0.008272     -0.001062
      4.73380      0.52117      8.98031        -0.003890     -0.001062      0.000265
      8.11998      6.57385      9.05316         0.016145     -0.002217      0.002897
     12.28392      0.51155      8.99216         0.007313      0.013751     -0.003429
     11.35884      8.26697      9.66736        -0.005256      0.004424      0.005631
     11.00361      5.08980     10.00907         0.008809     -0.014634      0.001355
     10.86145      8.43829     10.73629         0.000219     -0.011720      0.003233
      5.15804      8.40632     10.26841        -0.005942     -0.020373      0.016544
      6.33369     10.33183     11.32183         0.004123     -0.007971     -0.010735
      3.30543      9.65548     12.39358         0.017536      0.024131      0.010053
      6.03082      9.65647     12.92145         0.011785      0.003130     -0.009044
      2.84358      9.04172     10.80190        -0.003805      0.003369      0.021352
      3.83871     10.52634     10.94842         0.013511     -0.004564     -0.006548
      7.49315      8.17993     10.66696        -0.003278     -0.009381      0.002354
      4.78344      7.72622     11.84425        -0.003246      0.007210      0.024193
      7.29731      7.58468     12.31683         0.002530      0.002792     -0.004401
      8.92238     10.05576     11.49531        -0.000390     -0.000881     -0.016129
      8.69354      9.51882     13.15662         0.011632     -0.005373      0.003056
     10.84780      8.63392     12.50743         0.012540     -0.006335     -0.015875
      9.79611      7.27540     12.53487         0.000025      0.009532     -0.013766
      3.66299      9.51934     11.36278         0.009392      0.009376     -0.003541
      6.18833      9.37935     11.86463         0.020186     -0.001380      0.009630
      4.93956      8.68126     11.31614        -0.001974     -0.021752      0.019770
      7.43869      8.50573     11.71990         0.010013     -0.025181     -0.010605
      8.76764      9.15633     12.11640         0.004546     -0.014888     -0.022463
      9.98445      8.21649     11.95911         0.021518     -0.021188      0.022167
 -----------------------------------------------------------------------------------
    total drift:                               -0.046112     -0.439158     -0.055713


--------------------------------------------------------------------------------------------------------



  FREE ENERGIE OF THE ION-ELECTRON SYSTEM (eV)
  ---------------------------------------------------
  free  energy   TOTEN  =     -1399.02102841 eV

  energy  without entropy=    -1399.02102841  energy(sigma->0) =    -1399.02102841
 


--------------------------------------------------------------------------------------------------------


    POTLOK:  cpu time    0.2361: real time    0.2367


--------------------------------------------------------------------------------------------------------


 Dimer: Init Mode:
 Dimer: MODECAR found
 Dimer: -----------------
 Dimer: Itr    1 Rot    0

 Dimer: Central Point
 Dimer: F0      0.160240

 Dimer: Projection
 Dimer: N*F0  6.297076311073278E-003
 Dimer: F0sq  2.567695345086384E-002
 Dimer: Feffsq   3.965317006748026E-005
 
 stress matrix after NEB project (eV)
    -53.51740    -24.64667      0.94676
    -24.64667    -70.45259      0.36778
      0.94676      0.36778     -8.83780
  FORCES: max atom, RMS     0.037461    0.012400
  FORCE total and by dimension    0.160240    0.025181
  Stress total and by dimension   95.513169   70.452585
 OPT: skip step - force has converged
 writing wavefunctions
     LOOP+:  cpu time  403.7368: real time  405.7056
    4ORBIT:  cpu time    0.0000: real time    0.0000

 total amount of memory used by VASP MPI-rank0   175104. kBytes
=======================================================================

   base      :      30000. kBytes
   nonlr-proj:      11816. kBytes
   fftplans  :       9317. kBytes
   grid      :      26149. kBytes
   one-center:        870. kBytes
   wavefun   :      96952. kBytes
 
  
  
 General timing and accounting informations for this job:
 ========================================================
  
                  Total CPU time used (sec):      433.381
                            User time (sec):      407.508
                          System time (sec):       25.873
                         Elapsed time (sec):      435.670
  
                   Maximum memory used (kb):      440724.
                   Average memory used (kb):           0.
  
                          Minor page faults:        92844
                          Major page faults:            0
                 Voluntary context switches:         1329
