 vasp.5.4.4.18Apr17-6-g9f103f2a35 (build Mar 06 2019 14:20:02) complex          
  
 executed on             LinuxIFC date 2021.11.02  09:24:45
 running on  128 total cores
 distrk:  each k-point on  128 cores,    1 groups
 distr:  one band on NCORES_PER_BAND=  16 cores,    8 groups


--------------------------------------------------------------------------------------------------------


 INCAR:
 POTCAR:    PAW_PBE Zr_sv 04Jan2005               
 POTCAR:    PAW_PBE O 08Apr2002                   
 POTCAR:    PAW_PBE H 15Jun2001                   
 POTCAR:    PAW_PBE C 08Apr2002                   
 POTCAR:    PAW_PBE Zr_sv 04Jan2005               
   VRHFIN =Zr: 4s4p5s4d                                                         
   LEXCH  = PE                                                                  
   EATOM  =  1284.2219 eV,   94.3876 Ry                                         
                                                                                
   TITEL  = PAW_PBE Zr_sv 04Jan2005                                             
   LULTRA =        F    use ultrasoft PP ?                                      
   IUNSCR =        1    unscreen: 0-lin 1-nonlin 2-no                           
   RPACOR =    2.200    partial core radius                                     
   POMASS =   91.224; ZVAL   =   12.000    mass and valenz                      
   RCORE  =    2.500    outmost cutoff radius                                   
   RWIGS  =    3.070; RWIGS  =    1.625    wigner-seitz radius (au A)           
   ENMAX  =  229.898; ENMIN  =  172.424 eV                                      
   ICORE  =        3    local potential                                         
   LCOR   =        T    correct aug charges                                     
   LPAW   =        T    paw PP                                                  
   EAUG   =  461.257                                                            
   DEXC   =    0.000                                                            
   RMAX   =    2.561    core radius for proj-oper                               
   RAUG   =    1.300    factor for augmentation sphere                          
   RDEP   =    2.597    radius for radial grids                                 
   RDEPT  =    2.007    core radius for aug-charge                              
                                                                                
   Atomic configuration                                                         
   11 entries                                                                   
     n  l   j            E        occ.                                          
     1  0  0.50    -17820.0161   2.0000                                         
     2  0  0.50     -2467.0882   2.0000                                         
     2  1  1.50     -2199.6095   6.0000                                         
     3  0  0.50      -402.4863   2.0000                                         
     3  1  1.50      -315.3675   6.0000                                         
     3  2  2.50      -172.4472  10.0000                                         
     4  0  0.50       -52.4146   2.0000                                         
     5  0  0.50        -3.8421   1.0000                                         
     4  1  1.50       -30.5054   6.0000                                         
     4  2  2.50        -2.3341   3.0000                                         
     4  3  2.50        -1.3606   0.0000                                         
   Description                                                                  
     l       E           TYP  RCUT    TYP  RCUT                                 
     0    -52.4145962     23  2.200                                             
     0     -3.8421270     23  2.500                                             
     1    -30.5053914     23  2.200                                             
     1     20.4087390     23  2.200                                             
     2     -2.3340816     23  2.500                                             
     2     -0.6120942     23  2.500                                             
     3     -4.0817478     23  2.500                                             
  local pseudopotential read in
  partial core-charges read in
  partial kinetic energy density read in
  atomic valenz-charges read in
  non local Contribution for L=           0  read in
    real space projection operators read in
  non local Contribution for L=           0  read in
    real space projection operators read in
  non local Contribution for L=           1  read in
    real space projection operators read in
  non local Contribution for L=           1  read in
    real space projection operators read in
  non local Contribution for L=           2  read in
    real space projection operators read in
  non local Contribution for L=           2  read in
    real space projection operators read in
    PAW grid and wavefunctions read in
 
   number of l-projection  operators is LMAX  =           6
   number of lm-projection operators is LMMAX =          18
 
 POTCAR:    PAW_PBE O 08Apr2002                   
   VRHFIN =O: s2p4                                                              
   LEXCH  = PE                                                                  
   EATOM  =   432.3788 eV,   31.7789 Ry                                         
                                                                                
   TITEL  = PAW_PBE O 08Apr2002                                                 
   LULTRA =        F    use ultrasoft PP ?                                      
   IUNSCR =        1    unscreen: 0-lin 1-nonlin 2-no                           
   RPACOR =    1.200    partial core radius                                     
   POMASS =   16.000; ZVAL   =    6.000    mass and valenz                      
   RCORE  =    1.520    outmost cutoff radius                                   
   RWIGS  =    1.550; RWIGS  =    0.820    wigner-seitz radius (au A)           
   ENMAX  =  400.000; ENMIN  =  300.000 eV                                      
   ICORE  =        2    local potential                                         
   LCOR   =        T    correct aug charges                                     
   LPAW   =        T    paw PP                                                  
   EAUG   =  605.392                                                            
   DEXC   =    0.000                                                            
   RMAX   =    1.553    core radius for proj-oper                               
   RAUG   =    1.300    factor for augmentation sphere                          
   RDEP   =    1.550    radius for radial grids                                 
   RDEPT  =    1.329    core radius for aug-charge                              
                                                                                
   Atomic configuration                                                         
    4 entries                                                                   
     n  l   j            E        occ.                                          
     1  0  0.50      -514.6923   2.0000                                         
     2  0  0.50       -23.9615   2.0000                                         
     2  1  0.50        -9.0305   4.0000                                         
     3  2  1.50        -9.5241   0.0000                                         
   Description                                                                  
     l       E           TYP  RCUT    TYP  RCUT                                 
     0    -23.9615318     23  1.200                                             
     0     -9.5240782     23  1.200                                             
     1     -9.0304911     23  1.520                                             
     1      8.1634956     23  1.520                                             
     2     -9.5240782      7  1.500                                             
  local pseudopotential read in
  partial core-charges read in
  partial kinetic energy density read in
  kinetic energy density of atom read in
  atomic valenz-charges read in
  non local Contribution for L=           0  read in
    real space projection operators read in
  non local Contribution for L=           0  read in
    real space projection operators read in
  non local Contribution for L=           1  read in
    real space projection operators read in
  non local Contribution for L=           1  read in
    real space projection operators read in
    PAW grid and wavefunctions read in
 
   number of l-projection  operators is LMAX  =           4
   number of lm-projection operators is LMMAX =           8
 
 POTCAR:    PAW_PBE H 15Jun2001                   
   VRHFIN =H: ultrasoft test                                                    
   LEXCH  = PE                                                                  
   EATOM  =    12.4884 eV,    0.9179 Ry                                         
                                                                                
   TITEL  = PAW_PBE H 15Jun2001                                                 
   LULTRA =        F    use ultrasoft PP ?                                      
   IUNSCR =        0    unscreen: 0-lin 1-nonlin 2-no                           
   RPACOR =    0.000    partial core radius                                     
   POMASS =    1.000; ZVAL   =    1.000    mass and valenz                      
   RCORE  =    1.100    outmost cutoff radius                                   
   RWIGS  =    0.700; RWIGS  =    0.370    wigner-seitz radius (au A)           
   ENMAX  =  250.000; ENMIN  =  200.000 eV                                      
   RCLOC  =    0.701    cutoff for local pot                                    
   LCOR   =        T    correct aug charges                                     
   LPAW   =        T    paw PP                                                  
   EAUG   =  400.000                                                            
   RMAX   =    1.123    core radius for proj-oper                               
   RAUG   =    1.200    factor for augmentation sphere                          
   RDEP   =    1.112    radius for radial grids                                 
   RDEPT  =    0.926    core radius for aug-charge                              
                                                                                
   Atomic configuration                                                         
    2 entries                                                                   
     n  l   j            E        occ.                                          
     1  0  0.50        -6.4927   1.0000                                         
     2  1  0.50        -3.4015   0.0000                                         
   Description                                                                  
     l       E           TYP  RCUT    TYP  RCUT                                 
     0     -6.4927494     23  1.100                                             
     0      6.8029130     23  1.100                                             
     1     -4.0817478     23  1.100                                             
  local pseudopotential read in
  atomic valenz-charges read in
  non local Contribution for L=           0  read in
    real space projection operators read in
  non local Contribution for L=           0  read in
    real space projection operators read in
  non local Contribution for L=           1  read in
    real space projection operators read in
    PAW grid and wavefunctions read in
 
   number of l-projection  operators is LMAX  =           3
   number of lm-projection operators is LMMAX =           5
 
 POTCAR:    PAW_PBE C 08Apr2002                   
   VRHFIN =C: s2p2                                                              
   LEXCH  = PE                                                                  
   EATOM  =   147.1560 eV,   10.8157 Ry                                         
                                                                                
   TITEL  = PAW_PBE C 08Apr2002                                                 
   LULTRA =        F    use ultrasoft PP ?                                      
   IUNSCR =        1    unscreen: 0-lin 1-nonlin 2-no                           
   RPACOR =    1.200    partial core radius                                     
   POMASS =   12.011; ZVAL   =    4.000    mass and valenz                      
   RCORE  =    1.500    outmost cutoff radius                                   
   RWIGS  =    1.630; RWIGS  =    0.863    wigner-seitz radius (au A)           
   ENMAX  =  400.000; ENMIN  =  300.000 eV                                      
   ICORE  =        2    local potential                                         
   LCOR   =        T    correct aug charges                                     
   LPAW   =        T    paw PP                                                  
   EAUG   =  644.873                                                            
   DEXC   =    0.000                                                            
   RMAX   =    1.529    core radius for proj-oper                               
   RAUG   =    1.300    factor for augmentation sphere                          
   RDEP   =    1.501    radius for radial grids                                 
   RDEPT  =    1.300    core radius for aug-charge                              
                                                                                
   Atomic configuration                                                         
    4 entries                                                                   
     n  l   j            E        occ.                                          
     1  0  0.50      -273.3789   2.0000                                         
     2  0  0.50       -13.7508   2.0000                                         
     2  1  0.50        -5.2854   2.0000                                         
     3  2  1.50        -5.4423   0.0000                                         
   Description                                                                  
     l       E           TYP  RCUT    TYP  RCUT                                 
     0    -13.7508458     23  1.200                                             
     0     -8.2022199     23  1.200                                             
     1     -5.2854383     23  1.500                                             
     1     34.0145650     23  1.500                                             
     2     -5.4423304      7  1.500                                             
  local pseudopotential read in
  partial core-charges read in
  partial kinetic energy density read in
  atomic valenz-charges read in
  non local Contribution for L=           0  read in
    real space projection operators read in
  non local Contribution for L=           0  read in
    real space projection operators read in
  non local Contribution for L=           1  read in
    real space projection operators read in
  non local Contribution for L=           1  read in
    real space projection operators read in
    PAW grid and wavefunctions read in
 
   number of l-projection  operators is LMAX  =           4
   number of lm-projection operators is LMMAX =           8
 
 Optimization of the real space projectors (new method)

 maximal supplied QI-value         = 15.12
 optimisation between [QCUT,QGAM] = [ 11.34, 22.83] = [ 36.00,145.93] Ry 
 Optimized for a Real-space Cutoff    1.47 Angstroem

   l    n(q)    QCUT    max X(q) W(low)/X(q) W(high)/X(q)  e(spline) 
   0     10    11.338    12.107    0.38E-04    0.13E-04    0.27E-07
   0     10    11.338     9.948    0.69E-04    0.30E-04    0.38E-07
   1     10    11.338     3.563    0.26E-04    0.18E-04    0.40E-07
   1     10    11.338     4.524    0.25E-03    0.39E-04    0.44E-06
   2      9    11.338    87.261    0.26E-03    0.91E-05    0.26E-06
   2      9    11.338    70.950    0.25E-03    0.91E-05    0.25E-06
 Optimization of the real space projectors (new method)

 maximal supplied QI-value         = 24.76
 optimisation between [QCUT,QGAM] = [ 11.39, 22.77] = [ 36.31,145.25] Ry 
 Optimized for a Real-space Cutoff    1.00 Angstroem

   l    n(q)    QCUT    max X(q) W(low)/X(q) W(high)/X(q)  e(spline) 
   0      7    11.387    20.381    0.39E-03    0.13E-02    0.15E-06
   0      7    11.387    15.268    0.42E-03    0.14E-02    0.17E-06
   1      6    11.387     5.964    0.41E-03    0.11E-02    0.17E-06
   1      6    11.387     5.382    0.39E-03    0.87E-03    0.15E-06
 Optimization of the real space projectors (new method)

 maximal supplied QI-value         = 34.20
 optimisation between [QCUT,QGAM] = [ 11.29, 22.57] = [ 35.68,142.71] Ry 
 Optimized for a Real-space Cutoff    1.16 Angstroem

   l    n(q)    QCUT    max X(q) W(low)/X(q) W(high)/X(q)  e(spline) 
   0      8    11.287    19.460    0.40E-03    0.73E-03    0.16E-06
   0      8    11.287    12.209    0.38E-03    0.70E-03    0.15E-06
   1      7    11.287     4.655    0.22E-03    0.25E-04    0.22E-06
 Optimization of the real space projectors (new method)

 maximal supplied QI-value         = 25.13
 optimisation between [QCUT,QGAM] = [ 11.31, 22.87] = [ 35.82,146.48] Ry 
 Optimized for a Real-space Cutoff    1.00 Angstroem

   l    n(q)    QCUT    max X(q) W(low)/X(q) W(high)/X(q)  e(spline) 
   0      7    11.310   115.676    0.43E-03    0.13E-02    0.19E-06
   0      7    11.310    87.132    0.43E-03    0.13E-02    0.18E-06
   1      6    11.310     4.429    0.42E-03    0.74E-03    0.11E-06
   1      6    11.310     2.733    0.34E-03    0.55E-03    0.92E-07
  PAW_PBE Zr_sv 04Jan2005               :
 energy of atom  1       EATOM=-1284.2219
 kinetic energy error for atom=    0.0049 (will be added to EATOM!!)
  PAW_PBE O 08Apr2002                   :
 energy of atom  2       EATOM= -432.3788
 kinetic energy error for atom=    0.0224 (will be added to EATOM!!)
  PAW_PBE H 15Jun2001                   :
 energy of atom  3       EATOM=  -12.4884
 kinetic energy error for atom=    0.0020 (will be added to EATOM!!)
  PAW_PBE C 08Apr2002                   :
 energy of atom  4       EATOM= -147.1560
 kinetic energy error for atom=    0.0076 (will be added to EATOM!!)
 
 
 POSCAR: CONTCAR\(2)                             
  positions in direct lattice
  velocities in cartesian coordinates
  No initial velocities read in
 exchange correlation table for  LEXCH =        8
   RHO(1)=    0.500       N(1)  =     2000
   RHO(2)=  100.500       N(2)  =     4000
 


--------------------------------------------------------------------------------------------------------


 ion  position               nearest neighbor table
   1  0.088  0.321  0.038-  78 2.10  62 2.10  50 2.18  74 2.19  61 2.26  54 2.30  16 3.37   6 3.50
                            12 3.52  13 3.65
   2  0.338  0.821  0.038-  79 2.10  63 2.10  51 2.18  75 2.19  58 2.26  55 2.30  13 3.37   7 3.50
                             9 3.52  14 3.65
   3  0.588  0.321  0.038-  80 2.10  64 2.10  52 2.18  76 2.19  59 2.26  56 2.30  14 3.37   8 3.50
                            10 3.52  15 3.65
   4  0.838  0.821  0.038-  81 2.10  65 2.10  53 2.18  77 2.19  60 2.26  57 2.30  15 3.37   5 3.50
                            11 3.52  16 3.65
   5  0.070  0.834  0.049-  82 2.07  66 2.10  65 2.18  58 2.19  57 2.22  70 2.30  12 3.37  17 3.46
                             4 3.50  16 3.52   9 3.65
   6  0.320  0.334  0.049-  83 2.06  67 2.10  62 2.18  59 2.19  54 2.22  71 2.30   9 3.37  18 3.47
                             1 3.50  13 3.52  10 3.65
   7  0.570  0.834  0.049-  84 2.06  68 2.10  63 2.18  60 2.19  55 2.22  72 2.30  10 3.37  19 3.49
                             2 3.50  14 3.52  11 3.65
   8  0.820  0.334  0.049-  85 2.08  69 2.10  64 2.18  61 2.19  56 2.22  73 2.30  11 3.37   3 3.50
                            20 3.51  15 3.52  12 3.65
   9  0.238  0.068  0.057-  62 2.10  86 2.16  67 2.18  70 2.19  75 2.22  58 2.30   6 3.37  17 3.49
                            14 3.50  22 3.51   2 3.52   5 3.65
  10  0.488  0.568  0.057-  63 2.10  87 2.17  68 2.18  71 2.19  76 2.22  59 2.30   7 3.37  18 3.48
                            15 3.50   3 3.52  23 3.52   6 3.65
  11  0.738  0.068  0.057-  64 2.10  69 2.18  88 2.18  72 2.19  77 2.22  60 2.30   8 3.37  19 3.47
                            16 3.50   4 3.52  24 3.53   7 3.65
  12  0.988  0.568  0.057-  65 2.10  66 2.18  89 2.18  73 2.19  74 2.22  61 2.30   5 3.37  13 3.50
                             1 3.52  20 3.52  21 3.53   8 3.65
  13  0.220  0.581  0.068-  51 2.10  66 2.10  79 2.18  54 2.19  90 2.26  71 2.26  74 2.30   2 3.37
                            26 3.49  21 3.49  12 3.50  18 3.50   6 3.52   1 3.65
  14  0.470  0.081  0.068-  52 2.10  67 2.10  80 2.18  55 2.19  72 2.26  91 2.27  75 2.30   3 3.37
                            27 3.48  22 3.49   9 3.50  19 3.52   7 3.52   2 3.65
  15  0.720  0.581  0.068-  53 2.10  68 2.10  81 2.18  56 2.19  73 2.26  92 2.27  76 2.30   4 3.37
                            23 3.49  28 3.50  10 3.50   8 3.52  20 3.54   3 3.65
  16  0.970  0.081  0.068-  50 2.10  69 2.10  78 2.18  57 2.19  70 2.26  93 2.26  77 2.30   1 3.37
                            17 3.50  11 3.50  25 3.50  24 3.50   5 3.52   4 3.65
  17  0.106  0.982  0.171-  94 2.09 110 2.13  82 2.16  70 2.19 106 2.20  93 2.23  86 2.31  32 3.40
                             5 3.46   9 3.49  16 3.50  22 3.52  25 3.54  29 3.67
  18  0.356  0.483  0.171-  95 2.10 111 2.13  83 2.16  71 2.19 107 2.19  90 2.23  87 2.29  29 3.37
                             6 3.47  10 3.48  13 3.50  23 3.52  26 3.54  30 3.65
  19  0.608  0.984  0.171-  96 2.09 112 2.14  84 2.18  72 2.20 108 2.20  91 2.23  88 2.28  30 3.38
                            11 3.47   7 3.49  24 3.49  14 3.52  27 3.52  31 3.69
  20  0.856  0.483  0.173-  97 2.10 113 2.11  85 2.19 109 2.19  92 2.23  73 2.24  89 2.31  31 3.33
                            28 3.49   8 3.51  21 3.52  12 3.52  15 3.54  32 3.63
  21  0.089  0.495  0.183- 114 2.09  98 2.11  97 2.17  90 2.18  74 2.24  89 2.27 102 2.29  25 3.37
                            13 3.49  32 3.51  20 3.52  12 3.53  26 3.62  33 3.64
  22  0.339  0.995  0.182- 115 2.10  99 2.11  94 2.17  91 2.19  75 2.23 103 2.25  86 2.27  26 3.39
                            14 3.49  29 3.51   9 3.51  17 3.52  34 3.61  27 3.62
  23  0.589  0.492  0.182- 100 2.08 116 2.12  95 2.17  92 2.18  76 2.22  87 2.29 104 2.31  27 3.36
                            15 3.49  35 3.50  18 3.52  10 3.52  30 3.57  28 3.69
  24  0.839  0.995  0.183- 117 2.10 101 2.10  96 2.18  93 2.18  77 2.25  88 2.27 105 2.28  28 3.36
                            19 3.49  16 3.50  11 3.53  31 3.53  36 3.60  25 3.65
  25  0.005  0.230  0.191-  78 2.10  97 2.10 121 2.17  98 2.19 105 2.22 106 2.29  93 2.30  21 3.37
                            37 3.45  16 3.50  17 3.54  29 3.55  24 3.65  36 3.66
  26  0.253  0.730  0.191-  94 2.10  79 2.10 102 2.18 118 2.20  99 2.20 107 2.29  90 2.29  22 3.39
                            38 3.45  13 3.49  18 3.54  30 3.54  21 3.62  33 3.65
  27  0.504  0.228  0.191-  80 2.09  95 2.11 119 2.18 100 2.19 103 2.19  91 2.29 108 2.29  23 3.36
                            39 3.47  14 3.48  19 3.52  31 3.59  22 3.62  34 3.66
  28  0.758  0.729  0.191-  81 2.08  96 2.12 101 2.16 120 2.22 104 2.24 109 2.24  92 2.30  24 3.36
                            35 3.48  32 3.48  20 3.49  15 3.50  40 3.60  23 3.69
  29  0.240  0.242  0.201-  98 2.10  83 2.10 122 2.19 103 2.21 111 2.22  86 2.23 106 2.28  18 3.37
                            37 3.41  42 3.50  22 3.51  25 3.55  34 3.63  17 3.67
  30  0.487  0.743  0.199-  99 2.07  84 2.09 112 2.20 123 2.20  87 2.22 104 2.26 107 2.29  19 3.38
                            38 3.44  35 3.47  43 3.50  26 3.54  23 3.57  18 3.65
  31  0.741  0.245  0.203-  85 2.11 100 2.12 113 2.12 105 2.22 124 2.25  88 2.28 108 2.32  20 3.33
                            39 3.45  44 3.53  24 3.53  27 3.59  36 3.64  19 3.69
  32  0.988  0.740  0.203- 101 2.11  82 2.14 110 2.19 102 2.20 125 2.22  89 2.23 109 2.26  17 3.40
                            41 3.46  28 3.48  21 3.51  40 3.54  33 3.63  20 3.63
  33  0.123  0.641  0.314- 142 2.02 126 2.17 138 2.17 114 2.20 125 2.23 118 2.37 102 2.43  45 3.22
                            41 3.47  38 3.53  32 3.63  21 3.64  26 3.65  46 3.71
  34  0.371  0.139  0.313- 143 2.03 127 2.13 139 2.18 115 2.19 122 2.23 119 2.37 103 2.43  46 3.23
                            42 3.49  39 3.54  22 3.61  29 3.63  47 3.66  27 3.66
  35  0.621  0.649  0.303- 140 2.14 123 2.16 104 2.18 116 2.19 120 2.23 128 2.23 144 2.24  49 3.18
                            43 3.42  47 3.44  30 3.47  28 3.48  23 3.50  40 3.60  48 3.70
  36  0.874  0.137  0.314- 145 2.03 129 2.11 141 2.14 117 2.21 124 2.31 105 2.38 121 2.46  48 3.22
                            44 3.39  37 3.55  24 3.60  31 3.64  25 3.66  45 3.78
  37  0.110  0.161  0.312- 130 2.09 121 2.13 106 2.16 122 2.16 129 2.16 134 2.17  29 3.41  25 3.45
                            41 3.45  45 3.50  36 3.55  42 3.58
  38  0.358  0.659  0.312- 131 2.10 126 2.14 107 2.15 135 2.16 118 2.16 123 2.17  42 3.44  30 3.44
                            26 3.45  46 3.53  33 3.53  43 3.59
  39  0.606  0.158  0.314- 136 2.10 132 2.11 127 2.15 108 2.16 124 2.18 119 2.22  43 3.42  47 3.45
                            31 3.45  27 3.47  34 3.54  44 3.68
  40  0.858  0.663  0.322- 146 2.13 133 2.14 137 2.19 125 2.20 120 2.21 128 2.32 109 2.35  49 3.35
                            48 3.45  32 3.54  44 3.54  41 3.58  35 3.60  28 3.60
  41  0.027  0.889  0.324- 110 2.05 137 2.14 138 2.15 129 2.16 130 2.20 125 2.30  37 3.45  32 3.46
                            33 3.47  46 3.49  40 3.58
  42  0.276  0.388  0.325- 111 2.06 139 2.13 126 2.14 134 2.25 131 2.25 122 2.29  38 3.44  34 3.49
                            47 3.49  29 3.50  37 3.58
  43  0.524  0.888  0.325- 112 2.06 140 2.13 127 2.14 132 2.18 135 2.27 123 2.31  35 3.42  39 3.42
                            30 3.50  48 3.56  38 3.59
  44  0.786  0.380  0.332- 141 2.09 147 2.11 133 2.15 113 2.19 124 2.23 128 2.25 136 2.69  49 3.17
                            36 3.39  45 3.42  31 3.53  40 3.54  39 3.68
  45  0.013  0.407  0.336- 142 2.02 114 2.07 133 2.16 141 2.24 134 2.29 121 2.30  33 3.22  44 3.42
                            37 3.50  36 3.78
  46  0.259  0.906  0.336- 143 2.03 115 2.07 130 2.14 138 2.26 118 2.29 135 2.29  34 3.23  41 3.49
                            38 3.53  33 3.71
  47  0.507  0.399  0.334- 116 2.07 136 2.12 131 2.16 119 2.21 139 2.23 144 2.26  35 3.44  39 3.45
                            42 3.49  34 3.66  49 3.89
  48  0.760  0.906  0.337- 145 2.01 117 2.07 132 2.19 137 2.22 120 2.33 140 2.36  36 3.22  40 3.45
                            43 3.56  35 3.70
  49  0.707  0.553  0.412- 147 1.92 146 1.97 144 2.09 128 2.13  44 3.17  35 3.18  40 3.35  47 3.89

  50  0.024  0.173  0.000-  16 2.10   1 2.18
  51  0.274  0.673  0.000-  13 2.10   2 2.18
  52  0.524  0.173  0.000-  14 2.10   3 2.18
  53  0.774  0.673  0.000-  15 2.10   4 2.18
  54  0.215  0.432  0.016-  13 2.19   6 2.22   1 2.30
  55  0.465  0.932  0.016-  14 2.19   7 2.22   2 2.30
  56  0.715  0.432  0.016-  15 2.19   8 2.22   3 2.30
  57  0.965  0.932  0.016-  16 2.19   5 2.22   4 2.30
  58  0.207  0.891  0.025-   5 2.19   2 2.26   9 2.30
  59  0.457  0.391  0.025-   6 2.19   3 2.26  10 2.30
  60  0.707  0.891  0.025-   7 2.19   4 2.26  11 2.30
  61  0.957  0.391  0.025-   8 2.19   1 2.26  12 2.30
  62  0.197  0.226  0.044-   9 2.10   1 2.10   6 2.18
  63  0.447  0.726  0.044-  10 2.10   2 2.10   7 2.18
  64  0.697  0.226  0.044-  11 2.10   3 2.10   8 2.18
  65  0.947  0.726  0.044-  12 2.10   4 2.10   5 2.18
  66  0.111  0.675  0.062-   5 2.10  13 2.10  12 2.18
  67  0.361  0.175  0.062-   6 2.10  14 2.10   9 2.18
  68  0.611  0.675  0.062-   7 2.10  15 2.10  10 2.18
  69  0.861  0.175  0.062-   8 2.10  16 2.10  11 2.18
  70  0.101  0.010  0.081-  17 2.19   9 2.19  16 2.26   5 2.30
  71  0.351  0.510  0.081-  18 2.19  10 2.19  13 2.26   6 2.30
  72  0.601  0.010  0.081-  11 2.19  19 2.20  14 2.26   7 2.30
  73  0.851  0.510  0.081-  12 2.19  20 2.24  15 2.26   8 2.30
  74  0.093  0.470  0.090-   1 2.19  12 2.22  21 2.24  13 2.30
  75  0.343  0.970  0.090-   2 2.19   9 2.22  22 2.23  14 2.30
  76  0.593  0.470  0.090-   3 2.19  23 2.22  10 2.22  15 2.30
  77  0.843  0.970  0.090-   4 2.19  11 2.22  24 2.25  16 2.30
  78  0.034  0.229  0.106-   1 2.10  25 2.10  16 2.18
  79  0.284  0.729  0.106-   2 2.10  26 2.10  13 2.18
  80  0.534  0.229  0.106-  27 2.09   3 2.10  14 2.18
  81  0.784  0.729  0.106-  28 2.08   4 2.10  15 2.18
  82  0.045  0.833  0.134-   5 2.07  32 2.14  17 2.16
  83  0.296  0.334  0.133-   6 2.06  29 2.10  18 2.16
  84  0.546  0.834  0.133-   7 2.06  30 2.09  19 2.18
  85  0.796  0.333  0.134-   8 2.08  31 2.11  20 2.19
  86  0.231  0.093  0.146-   9 2.16  29 2.23  22 2.27  17 2.31
  87  0.481  0.593  0.147-  10 2.17  30 2.22  23 2.29  18 2.29
  88  0.732  0.094  0.147-  11 2.18  24 2.27  19 2.28  31 2.28
  89  0.982  0.593  0.147-  12 2.18  32 2.23  21 2.27  20 2.31
  90  0.226  0.552  0.160-  21 2.18  18 2.23  13 2.26  26 2.29
  91  0.476  0.051  0.161-  22 2.19  19 2.23  14 2.27  27 2.29
  92  0.725  0.552  0.161-  23 2.18  20 2.23  15 2.27  28 2.30
  93  0.975  0.052  0.161-  24 2.18  17 2.23  16 2.26  25 2.30
  94  0.215  0.890  0.181-  17 2.09  26 2.10  22 2.17
  95  0.465  0.389  0.181-  18 2.10  27 2.11  23 2.17
  96  0.715  0.889  0.181-  19 2.09  28 2.12  24 2.18
  97  0.966  0.390  0.182-  20 2.10  25 2.10  21 2.17
  98  0.130  0.335  0.192-  29 2.10  21 2.11  25 2.19
  99  0.379  0.835  0.193-  30 2.07  22 2.11  26 2.20
 100  0.629  0.335  0.194-  23 2.08  31 2.12  27 2.19
 101  0.880  0.836  0.194-  24 2.10  32 2.11  28 2.16
 102  0.117  0.671  0.214-  26 2.18  32 2.20  21 2.29  33 2.43
 103  0.367  0.169  0.213-  27 2.19  29 2.21  22 2.25  34 2.43
 104  0.618  0.671  0.213-  35 2.18  28 2.24  30 2.26  23 2.31
 105  0.868  0.169  0.216-  25 2.22  31 2.22  24 2.28  36 2.38
 106  0.116  0.130  0.224-  37 2.16  17 2.20  29 2.28  25 2.29
 107  0.364  0.631  0.224-  38 2.15  18 2.19  26 2.29  30 2.29
 108  0.615  0.131  0.225-  39 2.16  19 2.20  27 2.29  31 2.32
 109  0.865  0.632  0.225-  20 2.19  28 2.24  32 2.26  40 2.35
 110  0.047  0.893  0.240-  41 2.05  17 2.13  32 2.19
 111  0.297  0.396  0.241-  42 2.06  18 2.13  29 2.22
 112  0.547  0.893  0.240-  43 2.06  19 2.14  30 2.20
 113  0.798  0.393  0.241-  20 2.11  31 2.12  44 2.19
 114  0.071  0.492  0.269-  45 2.07  21 2.09  33 2.20
 115  0.315  0.992  0.268-  46 2.07  22 2.10  34 2.19
 116  0.562  0.494  0.269-  47 2.07  23 2.12  35 2.19
 117  0.809  0.993  0.269-  48 2.07  24 2.10  36 2.21
 118  0.251  0.750  0.282-  38 2.16  26 2.20  46 2.29  33 2.37
 119  0.498  0.250  0.281-  27 2.18  47 2.21  39 2.22  34 2.37
 120  0.749  0.746  0.283-  40 2.21  28 2.22  35 2.23  48 2.33
 121  0.006  0.251  0.281-  37 2.13  25 2.17  45 2.30  36 2.46
 122  0.246  0.214  0.291-  37 2.16  29 2.19  34 2.23  42 2.29
 123  0.494  0.712  0.290-  35 2.16  38 2.17  30 2.20  43 2.31
 124  0.744  0.215  0.296-  39 2.18  44 2.23  31 2.25  36 2.31
 125  0.995  0.711  0.294-  40 2.20  32 2.22  33 2.23  41 2.30
 126  0.240  0.554  0.329-  42 2.14  38 2.14  33 2.17
 127  0.486  0.053  0.327-  34 2.13  43 2.14  39 2.15
 128  0.730  0.544  0.325-  49 2.13  35 2.23  44 2.25  40 2.32
 129  0.990  0.055  0.328-  36 2.11  41 2.16  37 2.16
 130  0.148  0.004  0.330-  37 2.09  46 2.14  41 2.20
 131  0.399  0.505  0.334-  38 2.10  47 2.16  42 2.25
 132  0.643  0.000  0.335-  39 2.11  43 2.18  48 2.19
 133  0.898  0.500  0.328-  40 2.14  44 2.15  45 2.16
 134  0.139  0.320  0.352-  37 2.17  42 2.25  45 2.29
 135  0.385  0.820  0.350-  38 2.16  43 2.27  46 2.29
 136  0.616  0.310  0.356-  39 2.10  47 2.12  44 2.69
 137  0.891  0.838  0.342-  41 2.14  40 2.19  48 2.22
 138  0.133  0.799  0.356-  41 2.15  33 2.17  46 2.26
 139  0.381  0.299  0.355-  42 2.13  34 2.18  47 2.23
 140  0.627  0.794  0.354-  43 2.13  35 2.14  48 2.36
 141  0.893  0.292  0.355-  44 2.09  36 2.14  45 2.24
 142  0.067  0.543  0.375-  33 2.02  45 2.02
 143  0.316  0.042  0.375-  34 2.03  46 2.03
 144  0.579  0.546  0.377-  49 2.09  35 2.24  47 2.26
 145  0.816  0.041  0.375-  48 2.01  36 2.03
 146  0.800  0.675  0.402-  49 1.97  40 2.13
 147  0.762  0.418  0.416-  49 1.92  44 2.11
 148  0.531  0.725  0.441- 166 1.10
 149  0.309  0.463  0.516- 164 1.10
 150  0.471  0.534  0.530- 163 1.11
 151  0.447  0.322  0.462- 162 1.10
 152  0.487  0.526  0.458- 163 1.10
 153  0.340  0.269  0.484- 162 1.10
 154  0.420  0.324  0.534- 162 1.10
 155  0.369  0.680  0.518- 165 1.10
 156  0.329  0.457  0.444- 164 1.11
 157  0.371  0.665  0.445- 165 1.11
 158  0.538  0.729  0.515- 166 1.11
 159  0.532  0.919  0.474- 167 1.10
 160  0.440  0.885  0.518- 167 1.10
 161  0.426  0.879  0.445- 167 1.10
 162  0.393  0.335  0.492- 153 1.10 154 1.10 151 1.10 164 1.53
 163  0.437  0.541  0.490- 152 1.10 150 1.11 164 1.53 165 1.53
 164  0.361  0.450  0.485- 149 1.10 156 1.11 163 1.53 162 1.53
 165  0.412  0.659  0.483- 155 1.10 157 1.11 163 1.53 166 1.53
 166  0.493  0.742  0.479- 148 1.10 158 1.11 167 1.53 165 1.53
 167  0.472  0.863  0.479- 160 1.10 161 1.10 159 1.10 166 1.53
 
  Warning from LATTYP: Monoclinic adjustement (A1->A3, A2->A1, A3->A2)!
  Warning from LATTYP: Got some problem with cell dimensions!
  Tried to take original basis but could not verify dimensions!
  LATTYP: Found a simple monoclinic cell.
 ALAT       =    18.5584556648
 B/A-ratio  =     1.2917238965
 C/A-ratio  =     1.7011970181
 COS(beta)  =    -0.9496615564
  
  Lattice vectors:
  
 A1 = ( -14.0305058395, -12.1474763861,   0.0000000000)
 A2 = (   0.0000000000,   0.0000000000, -23.9724006653)
 A3 = (  29.1411063110,  12.1474763861,   0.0000000000)


Analysis of symmetry for initial positions (statically):
=====================================================================
 Subroutine PRICEL returns:
 Original cell was already a primitive cell.
 

 Routine SETGRP: Setting up the symmetry group for a 
 simple monoclinic supercell.


 Subroutine GETGRP returns: Found  1 space group operations
 (whereof  1 operations were pure point group operations)
 out of a pool of  4 trial point group operations.


The static configuration has the point symmetry C_1 .


Analysis of symmetry for dynamics (positions and initial velocities):
=====================================================================
 Subroutine PRICEL returns:
 Original cell was already a primitive cell.
 

 Routine SETGRP: Setting up the symmetry group for a 
 simple monoclinic supercell.


 Subroutine GETGRP returns: Found  1 space group operations
 (whereof  1 operations were pure point group operations)
 out of a pool of  4 trial point group operations.


The dynamic configuration has the point symmetry C_1 .


Analysis of constrained symmetry for selective dynamics:
=====================================================================
 Subroutine PRICEL returns:
 Original cell was already a primitive cell.
 

 Routine SETGRP: Setting up the symmetry group for a 
 simple monoclinic supercell.


 Subroutine GETGRP returns: Found  1 space group operations
 (whereof  1 operations were pure point group operations)
 out of a pool of  4 trial point group operations.


The constrained configuration has the point symmetry C_1 .


Analysis of structural, dynamic, and magnetic symmetry:
=====================================================================
 Subroutine PRICEL returns:
 Original cell was already a primitive cell.
 

 Routine SETGRP: Setting up the symmetry group for a 
 simple monoclinic supercell.


 Subroutine GETGRP returns: Found  1 space group operations
 (whereof  1 operations were pure point group operations)
 out of a pool of  4 trial point group operations.


The magnetic configuration has the point symmetry C_1 .


 Subroutine INISYM returns: Found  1 space group operations
 (whereof  1 operations are pure point group operations),
 and found     1 'primitive' translations

 
 
 KPOINTS: Monkhorst Pack                          

Automatic generation of k-mesh.
Space group operators:
 irot       det(A)        alpha          n_x          n_y          n_z        tau_x        tau_y        tau_z
    1     1.000000     0.000000     1.000000     0.000000     0.000000     0.000000     0.000000     0.000000
 
 Subroutine IBZKPT returns following result:
 ===========================================
 
 Found      2 irreducible k-points:
 
 Following reciprocal coordinates:
            Coordinates               Weight
  0.250000  0.250000  0.000000      2.000000
 -0.250000  0.250000  0.000000      2.000000
 
 Following cartesian coordinates:
            Coordinates               Weight
  0.016545  0.022051  0.000000      2.000000
 -0.016545  0.019109  0.000000      2.000000
 


--------------------------------------------------------------------------------------------------------




 Dimension of arrays:
   k-points           NKPTS =      2   k-points in BZ     NKDIM =      2   number of bands    NBANDS=    640
   number of dos      NEDOS =    301   number of ions     NIONS =    167
   non local maximal  LDIM  =      6   non local SUM 2l+1 LMDIM =     18
   total plane-waves  NPLWV = 823200
   max r-space proj   IRMAX =   2561   max aug-charges    IRDMAX=   7978
   dimension x,y,z NGX =    84 NGY =   70 NGZ =  140
   dimension x,y,z NGXF=   168 NGYF=  140 NGZF=  280
   support grid    NGXF=   168 NGYF=  140 NGZF=  280
   ions per type =              49  98  14   6
   NGX,Y,Z   is equivalent  to a cutoff of   9.24,  9.54,  9.71 a.u.
   NGXF,Y,Z  is equivalent  to a cutoff of  18.48, 19.08, 19.42 a.u.

 SYSTEM =  mZrO2_n111                              
 POSCAR =  CONTCAR\(2)                             

 Startparameter for this run:
   NWRITE =      2    write-flag & timer
   PREC   = normal    normal or accurate (medium, high low for compatibility)
   ISTART =      1    job   : 0-new  1-cont  2-samecut
   ICHARG =      1    charge: 1-file 2-atom 10-const
   ISPIN  =      2    spin polarized calculation?
   LNONCOLLINEAR =      F non collinear calculations
   LSORBIT =      F    spin-orbit coupling
   INIWAV =      1    electr: 0-lowe 1-rand  2-diag
   LASPH  =      F    aspherical Exc in radial PAW
   METAGGA=      F    non-selfconsistent MetaGGA calc.

 Electronic Relaxation 1
   ENCUT  =  500.0 eV  36.75 Ry    6.06 a.u.  27.55 22.24 43.71*2*pi/ulx,y,z
   ENINI  =  500.0     initial cutoff
   ENAUG  =  644.9 eV  augmentation charge cutoff
   NELM   =    300;   NELMIN=  2; NELMDL=  0     # of ELM steps 
   EDIFF  = 0.1E-05   stopping-criterion for ELM
   LREAL  =      T    real-space projection
   NLSPLINE    = F    spline interpolate recip. space projectors
   LCOMPAT=      F    compatible to vasp.4.4
   GGA_COMPAT  = T    GGA compatible to vasp.4.4-vasp.4.6
   LMAXPAW     = -100 max onsite density
   LMAXMIX     =    2 max onsite mixed and CHGCAR
   VOSKOWN=      0    Vosko Wilk Nusair interpolation
   ROPT   =   -0.00050  -0.00050  -0.00050  -0.00050
 Ionic relaxation
   EDIFFG = -.2E-01   stopping-criterion for IOM
   NSW    =      0    number of steps for IOM
   NBLOCK =      1;   KBLOCK =      1    inner block; outer block 
   IBRION =     -1    ionic relax: 0-MD 1-quasi-New 2-CG
   NFREE  =      1    steps in history (QN), initial steepest desc. (CG)
   ISIF   =      2    stress and relaxation
   IWAVPR =     10    prediction:  0-non 1-charg 2-wave 3-comb
   ISYM   =      2    0-nonsym 1-usesym 2-fastsym
   LCORR  =      T    Harris-Foulkes like correction to forces

   POTIM  = 0.5000    time-step for ionic-motion
   TEIN   =    0.0    initial temperature
   TEBEG  =    0.0;   TEEND  =   0.0 temperature during run
   SMASS  =  -3.00    Nose mass-parameter (am)
   estimated Nose-frequenzy (Omega)   =  0.10E-29 period in steps =****** mass=  -0.522E-26a.u.
   SCALEE = 1.0000    scale energy and forces
   NPACO  =    256;   APACO  = 16.0  distance and # of slots for P.C.
   PSTRESS=    0.0 pullay stress

  Mass of Ions in am
   POMASS =  91.22 16.00  1.00 12.01
  Ionic Valenz
   ZVAL   =  12.00  6.00  1.00  4.00
  Atomic Wigner-Seitz radii
   RWIGS  =  -1.00 -1.00 -1.00 -1.00
  virtual crystal weights 
   VCA    =   1.00  1.00  1.00  1.00
   NELECT =    1214.0000    total number of electrons
   NUPDOWN=      -1.0000    fix difference up-down

 DOS related values:
   EMIN   =  10.00;   EMAX   =-10.00  energy-range for DOS
   EFERMI =   0.00
   ISMEAR =     0;   SIGMA  =   0.05  broadening in eV -4-tet -1-fermi 0-gaus

 Electronic relaxation 2 (details)
   IALGO  =     38    algorithm
   LDIAG  =      T    sub-space diagonalisation (order eigenvalues)
   LSUBROT=      F    optimize rotation matrix (better conditioning)
   TURBO    =      0    0=normal 1=particle mesh
   IRESTART =      0    0=no restart 2=restart with 2 vectors
   NREBOOT  =      0    no. of reboots
   NMIN     =      0    reboot dimension
   EREF     =   0.00    reference energy to select bands
   IMIX   =      4    mixing-type and parameters
     AMIX     =   0.40;   BMIX     =  1.00
     AMIX_MAG =   1.60;   BMIX_MAG =  1.00
     AMIN     =   0.10
     WC   =   100.;   INIMIX=   1;  MIXPRE=   1;  MAXMIX= -45

 Intra band minimization:
   WEIMIN = 0.0000     energy-eigenvalue tresh-hold
   EBREAK =  0.39E-09  absolut break condition
   DEPER  =   0.30     relativ break condition  

   TIME   =   0.40     timestep for ELM

  volume/ion in A,a.u.               =      26.35       177.81
  Fermi-wavevector in a.u.,A,eV,Ry     =   1.065748  2.013972 15.453760  1.135819
  Thomas-Fermi vector in A             =   2.201310
 
 Write flags
   LWAVE        =      F    write WAVECAR
   LDOWNSAMPLE  =      F    k-point downsampling of WAVECAR
   LCHARG       =      F    write CHGCAR
   LVTOT        =      F    write LOCPOT, total local potential
   LVHAR        =      F    write LOCPOT, Hartree potential only
   LELF         =      F    write electronic localiz. function (ELF)
   LORBIT       =      0    0 simple, 1 ext, 2 COOP (PROOUT), +10 PAW based schemes


 Dipole corrections
   LMONO  =      F    monopole corrections only (constant potential shift)
   LDIPOL =      F    correct potential (dipole corrections)
   IDIPOL =      3    1-x, 2-y, 3-z, 4-all directions 
   EPSILON=  1.0000000 bulk dielectric constant

 LDA+U is selected, type is set to LDAUTYPE =  2
   angular momentum for each species LDAUL =     2   -1   -1   -1
   U (eV)           for each species LDAUU =   4.0  0.0  0.0  0.0
   J (eV)           for each species LDAUJ =   0.0  0.0  0.0  0.0
 Exchange correlation treatment:
   GGA     =    --    GGA type
   LEXCH   =     8    internal setting for exchange type
   VOSKOWN=      0    Vosko Wilk Nusair interpolation
   LHFCALC =     F    Hartree Fock is set to
   LHFONE  =     F    Hartree Fock one center treatment
   AEXX    =    0.0000 exact exchange contribution

 Linear response parameters
   LEPSILON=     F    determine dielectric tensor
   LRPA    =     F    only Hartree local field effects (RPA)
   LNABLA  =     F    use nabla operator in PAW spheres
   LVEL    =     F    velocity operator in full k-point grid
   LINTERFAST=   F  fast interpolation
   KINTER  =     0    interpolate to denser k-point grid
   CSHIFT  =0.1000    complex shift for real part using Kramers Kronig
   OMEGAMAX=  -1.0    maximum frequency
   DEG_THRESHOLD= 0.2000000E-02 threshold for treating states as degnerate
   RTIME   =   -0.100 relaxation time in fs
  (WPLASMAI=    0.000 imaginary part of plasma frequency in eV, 0.658/RTIME)
   DFIELD  = 0.0000000 0.0000000 0.0000000 field for delta impulse in time
 
 Orbital magnetization related:
   ORBITALMAG=     F  switch on orbital magnetization
   LCHIMAG   =     F  perturbation theory with respect to B field
   DQ        =  0.001000  dq finite difference perturbation B field
   LLRAUG    =     F  two centre corrections for induced B field



--------------------------------------------------------------------------------------------------------


 Static calculation
 charge density and potential will be updated during run
 spin polarized calculation
 Variant of blocked Davidson
 Davidson routine will perform the subspace rotation
 perform sub-space diagonalisation
    after iterative eigenvector-optimisation
 modified Broyden-mixing scheme, WC =      100.0
 initial mixing is a Kerker type mixing with AMIX =  0.4000 and BMIX =      1.0000
 Hartree-type preconditioning will be used
 using additional bands           33
 real space projection scheme for non local part
 use partial core corrections
 calculate Harris-corrections to forces 
   (improved forces if not selfconsistent)
 use gradient corrections 
 use of overlap-Matrix (Vanderbilt PP)
 Gauss-broadening in eV      SIGMA  =   0.05


--------------------------------------------------------------------------------------------------------


  energy-cutoff  :      500.00
  volume of cell :     4400.27
      direct lattice vectors                 reciprocal lattice vectors
    15.110600471  0.000000000  0.000000000     0.066178707  0.005884289  0.000000000
    -1.080094632 12.147476386  0.000000000     0.000000000  0.082321625  0.000000000
     0.000000000  0.000000000 23.972400665     0.000000000  0.000000000  0.041714637

  length of vectors
    15.110600471 12.195400238 23.972400665     0.066439793  0.082321625  0.041714637


 
 old parameters found on file WAVECAR:
  energy-cutoff  :      500.00
  volume of cell :     4400.27
      direct lattice vectors                 reciprocal lattice vectors
    15.110600471  0.000000000  0.000000000     0.066178707  0.005884289  0.000000000
    -1.080094632 12.147476386  0.000000000     0.000000000  0.082321625  0.000000000
     0.000000000  0.000000000 23.972400665     0.000000000  0.000000000  0.041714637

  length of vectors

 
 k-points in units of 2pi/SCALE and weight: Monkhorst Pack                          
   0.01654468  0.02205148  0.00000000       0.500
  -0.01654468  0.01910933  0.00000000       0.500
 
 k-points in reciprocal lattice and weights: Monkhorst Pack                          
   0.25000000  0.25000000  0.00000000       0.500
  -0.25000000  0.25000000  0.00000000       0.500
 
 position of ions in fractional coordinates (direct lattice) 
   0.08848000  0.32082999  0.03824000
   0.33847998  0.82083000  0.03824000
   0.58847999  0.32082999  0.03824000
   0.83848001  0.82083000  0.03824000
   0.07020001  0.83354995  0.04873000
   0.32019998  0.33355000  0.04873000
   0.57020004  0.83354995  0.04873000
   0.82020001  0.33355000  0.04873000
   0.23783000  0.06778000  0.05703000
   0.48783004  0.56778001  0.05703000
   0.73783001  0.06778000  0.05703000
   0.98782997  0.56778001  0.05703000
   0.21954999  0.58051001  0.06752000
   0.46955000  0.08051000  0.06752000
   0.71954999  0.58051001  0.06752000
   0.96955000  0.08051000  0.06752000
   0.10565185  0.98238882  0.17085416
   0.35628822  0.48347486  0.17104902
   0.60794174  0.98409027  0.17133431
   0.85603515  0.48315544  0.17316512
   0.08940396  0.49458649  0.18252411
   0.33892492  0.99499858  0.18205823
   0.58919672  0.49220313  0.18186814
   0.83864568  0.99489773  0.18284119
   0.00480054  0.23008686  0.19144872
   0.25274349  0.72977774  0.19121602
   0.50413098  0.22845316  0.19082552
   0.75816193  0.72928425  0.19115826
   0.23966343  0.24173470  0.20060299
   0.48749035  0.74305279  0.19934961
   0.74133952  0.24458406  0.20346592
   0.98841829  0.73965332  0.20280118
   0.12325209  0.64113296  0.31436212
   0.37125696  0.13930187  0.31281109
   0.62147192  0.64883028  0.30346040
   0.87449680  0.13654823  0.31387498
   0.11009188  0.16090714  0.31226290
   0.35798020  0.65925892  0.31226871
   0.60611899  0.15783504  0.31396414
   0.85842114  0.66345801  0.32167175
   0.02748234  0.88863721  0.32428763
   0.27575815  0.38833472  0.32537702
   0.52401075  0.88797649  0.32458523
   0.78561033  0.37988344  0.33193892
   0.01257917  0.40672913  0.33577990
   0.25866468  0.90641939  0.33579335
   0.50709474  0.39940033  0.33377142
   0.75965122  0.90565132  0.33718216
   0.70652512  0.55290372  0.41226735
   0.02440000  0.17254999  0.00000000
   0.27439999  0.67255002  0.00000000
   0.52439999  0.17254999  0.00000000
   0.77439999  0.67255002  0.00000000
   0.21455000  0.43156997  0.01581000
   0.46455001  0.93156996  0.01581000
   0.71455008  0.43156997  0.01581000
   0.96455004  0.93156996  0.01581000
   0.20673000  0.89092997  0.02490000
   0.45673000  0.39092998  0.02490000
   0.70672997  0.89092997  0.02490000
   0.95673004  0.39092998  0.02490000
   0.19748000  0.22610000  0.04418000
   0.44748002  0.72610003  0.04418000
   0.69748003  0.22610000  0.04418000
   0.94747999  0.72610003  0.04418000
   0.11054000  0.67523994  0.06158000
   0.36054002  0.17523999  0.06158000
   0.61053998  0.67523994  0.06158000
   0.86053999  0.17523999  0.06158000
   0.10129000  0.01041000  0.08086000
   0.35129000  0.51041000  0.08086000
   0.60128998  0.01041000  0.08086000
   0.85128994  0.51041000  0.08086000
   0.09348000  0.46976000  0.08995000
   0.34348000  0.96975995  0.08995000
   0.59348001  0.46976000  0.08995000
   0.84347996  0.96975995  0.08995000
   0.03362000  0.22878000  0.10576000
   0.28361999  0.72877998  0.10576000
   0.53361997  0.22878000  0.10576000
   0.78362002  0.72877998  0.10576000
   0.04492270  0.83267283  0.13365569
   0.29648869  0.33372880  0.13344969
   0.54607948  0.83409186  0.13329477
   0.79601831  0.33268372  0.13399552
   0.23146858  0.09330398  0.14609932
   0.48146967  0.59328518  0.14659610
   0.73175238  0.09366075  0.14692305
   0.98176618  0.59311703  0.14689775
   0.22561908  0.55220782  0.16039350
   0.47622596  0.05084286  0.16064343
   0.72529541  0.55165196  0.16074040
   0.97515422  0.05217854  0.16074093
   0.21491101  0.89012800  0.18084661
   0.46470219  0.38924182  0.18062500
   0.71506078  0.88853009  0.18087740
   0.96557729  0.39030676  0.18212859
   0.13026547  0.33480428  0.19196803
   0.37877873  0.83502992  0.19312467
   0.62874709  0.33455588  0.19390587
   0.87971937  0.83619813  0.19398463
   0.11731650  0.67097095  0.21441831
   0.36732973  0.16929160  0.21282186
   0.61809572  0.67084965  0.21307331
   0.86796372  0.16933281  0.21627943
   0.11572394  0.13010747  0.22371797
   0.36363362  0.63085567  0.22381189
   0.61512900  0.13088961  0.22519942
   0.86451605  0.63151911  0.22508367
   0.04734434  0.89304669  0.23978774
   0.29720018  0.39567406  0.24058005
   0.54736153  0.89333179  0.23999751
   0.79763041  0.39256531  0.24090709
   0.07089016  0.49213095  0.26888448
   0.31490474  0.99219188  0.26818124
   0.56157060  0.49350721  0.26850293
   0.80949391  0.99298693  0.26855213
   0.25077052  0.74987788  0.28235003
   0.49774124  0.25019041  0.28084706
   0.74916786  0.74572515  0.28320872
   0.00617457  0.25145241  0.28112390
   0.24605525  0.21391162  0.29076822
   0.49395193  0.71200046  0.28965567
   0.74398229  0.21492354  0.29621770
   0.99541436  0.71075540  0.29399608
   0.23991757  0.55407854  0.32929455
   0.48590492  0.05258007  0.32662772
   0.73016729  0.54420515  0.32476524
   0.99024119  0.05540685  0.32830803
   0.14775962  0.00388905  0.33045706
   0.39920912  0.50470697  0.33419778
   0.64302862  0.00030463  0.33486205
   0.89816819  0.49995043  0.32822719
   0.13879379  0.32040146  0.35177744
   0.38540362  0.81952564  0.34968447
   0.61614421  0.30953617  0.35564637
   0.89095331  0.83753431  0.34194557
   0.13320630  0.79940518  0.35641072
   0.38101921  0.29857336  0.35476502
   0.62709861  0.79388242  0.35395594
   0.89255540  0.29201763  0.35529129
   0.06746900  0.54289170  0.37509942
   0.31643106  0.04217533  0.37457184
   0.57904217  0.54558759  0.37747535
   0.81562768  0.04130202  0.37504425
   0.80004150  0.67489095  0.40225287
   0.76201922  0.41765972  0.41602835
   0.53104941  0.72500257  0.44112322
   0.30932647  0.46276697  0.51607713
   0.47069803  0.53359440  0.53045294
   0.44673220  0.32170561  0.46217900
   0.48724308  0.52632981  0.45750293
   0.34003188  0.26948505  0.48433576
   0.41952577  0.32418882  0.53410330
   0.36870334  0.68001709  0.51760305
   0.32935798  0.45710304  0.44389855
   0.37124734  0.66450335  0.44471758
   0.53790698  0.72914573  0.51465564
   0.53248049  0.91914690  0.47367763
   0.44049807  0.88493855  0.51806021
   0.42567931  0.87854154  0.44489784
   0.39314980  0.33519832  0.49188074
   0.43742025  0.54081879  0.48972149
   0.36130038  0.44997935  0.48507435
   0.41188554  0.65867887  0.48284033
   0.49347656  0.74244202  0.47913670
   0.47199314  0.86268986  0.47878066
 
 position of ions in cartesian coordinates  (Angst):
   0.99045921  3.89727473  0.91670460
   4.22806168  9.97101307  0.91670460
   8.54575920  3.89727473  0.91670460
  11.78336239  9.97101307  0.91670460
   0.16045142 10.12552833  1.16817511
   4.47814847  4.05179071  1.16817511
   7.71575212 10.12552833  1.16817511
  12.03344917  4.05179071  1.16817511
   3.52054525  0.82335597  1.36714601
   6.75814868  6.89709425  1.36714601
  11.07584571  0.82335597  1.36714601
  14.31344795  6.89709425  1.36714601
   2.69052649  7.05173159  1.61861647
   7.00822400  0.97799331  1.61861647
  10.24582672  7.05173159  1.61861647
  14.56352424  0.97799331  1.61861647
   0.53539005 11.93354501  4.09578432
   4.86153035  5.87299943  4.10045556
   8.12345418 11.95421334  4.10729465
  12.41335153  5.86911933  4.15118365
   0.81674730  6.00797772  4.37554110
   4.04666647 12.08672182  4.36437284
   8.37149026  5.97902592  4.35981584
  11.59785612 12.08549674  4.38314221
  -0.17597660  2.79497476  4.58948540
   3.03087681  8.86495792  4.58390705
   7.37097078  2.77512935  4.57454593
  10.66858608  8.85896323  4.58252234
   3.36036196  2.93646662  4.80893528
   6.56370462  9.02621624  4.77888865
  10.93791142  2.97107906  4.87756645
  14.13669832  8.98492130  4.86163126
   1.16992883  7.78814751  7.53601466
   5.45945632  1.69216618  7.49883272
   8.69001575  7.88165052  7.27467430
  13.06668674  1.65871635  7.52433667
   1.48975953  1.95461563  7.48569142
   4.69723382  8.00833217  7.48583074
   8.98834516  1.91729742  7.52647406
  12.25466146  8.05934047  7.71124407
  -0.54453769 10.79469957  7.77395303
   3.74743301  4.71728686  7.80006818
   6.95901843 10.78667348  7.78108724
  11.46073379  4.61462511  7.95737270
  -0.24922718  4.94073255  8.04945034
   2.92955992 11.01070819  8.04977284
   7.23111585  4.85170606  8.00130228
  10.50059698 11.00137806  8.08306590
  10.07883043  6.71638483  9.88303820
   0.18232835  2.09604693  0.00000000
   3.41993094  8.16978550  0.00000000
   7.73762846  2.09604693  0.00000000
  10.97523117  8.16978550  0.00000000
   2.77584291  5.24248600  0.37900365
   6.01344586 11.31622410  0.37900365
  10.33114434  5.24248600  0.37900365
  13.56874656 11.31622410  0.37900365
   2.16152573 10.82255077  0.59691280
   6.47922326  4.74881268  0.59691280
   9.71682548 10.82255077  0.59691280
  14.03452396  4.74881268  0.59691280
   2.73983193  2.74654436  1.05910064
   5.97743511  8.82028293  1.05910064
  10.29513263  2.74654436  1.05910064
  13.53273487  8.82028293  1.05910064
   0.94100273  8.20246124  1.47622036
   5.25870037  2.12872362  1.47622036
   8.49630260  8.20246124  1.47622036
  12.81400013  2.12872362  1.47622036
   1.51930892  0.12645522  1.93840825
   4.75691175  6.20019341  1.93840825
   9.07460880  0.12645522  1.93840825
  12.31221104  6.20019341  1.93840825
   0.90515363  5.70639848  2.15631746
   4.14275646 11.78013610  2.15631746
   8.46045399  5.70639848  2.15631746
  11.69805622 11.78013610  2.15631746
   0.26091433  2.77909971  2.53532100
   3.49851704  8.85283756  2.53532100
   7.81621408  2.77909971  2.53532100
  11.05381775  8.85283756  2.53532100
  -0.22055649 10.11487356  3.20404771
   4.11966344  4.05396267  3.19910939
   7.35069064 10.13211119  3.19539566
  11.66898467  4.04126768  3.21219420
   3.39685216  1.13340795  3.50235149
   6.63449171  7.20691776  3.51426056
  10.95605541  1.13774173  3.52209812
  14.19445393  7.20487515  3.52149166
   2.81280303  6.70793142  3.84501717
   7.14114516  0.61761248  3.85100860
  10.36381289  6.70117917  3.85333333
  14.67880804  0.63383762  3.85334591
   2.28601199 10.81280887  4.33532740
   6.60151112  4.72830581  4.33001479
   9.84530113 10.79339834  4.33606559
  14.16888448  4.74124218  4.36605965
   1.60676923  4.06702708  4.60193454
   4.82166265 10.14350621  4.62966203
   9.13939403  4.06400971  4.64838929
  12.38991487 10.15769705  4.65027716
   1.04801068  8.15060374  5.14012154
   5.36772182  2.05646573  5.10185078
   8.61521631  8.14913034  5.10787874
  12.93255757  2.05696634  5.18473705
   1.60812991  1.58047740  5.36305684
   4.81333848  7.66330431  5.36530839
   9.15359541  1.58997847  5.39857081
  12.38125618  7.67136353  5.39579585
  -0.24917359 10.84826363  5.74828770
   4.06350779  4.80644132  5.76728129
   7.30607849 10.85172683  5.75331637
  11.62866684  4.76867781  5.77512131
   0.53964491  5.97814912  6.44580657
   3.68673864 12.05262739  6.42894810
   7.95263444  5.99486714  6.43665984
  11.15941918 12.06228528  6.43783934
   2.97935412  9.10912390  6.76860809
   7.25093976  3.03918204  6.73257815
  10.51492243  9.05867867  6.78919286
  -0.17829093  3.05451223  6.73921465
   3.48699782  2.59848635  6.97041220
   6.69488241  8.64900883  6.94374186
  11.00988139  2.61077866  7.10104934
  14.27362554  8.63388439  7.04779194
   3.02684135  6.73065594  7.89398092
   7.28552359  0.63871516  7.83005054
  10.44547317  6.61071915  7.78540246
  14.90329429  0.67305339  7.87033153
   2.22853606  0.04724212  7.92184908
   5.48715822  6.13091595  8.01152314
   9.71621958  0.00370046  8.02744718
  13.03186683  6.07313601  7.86839378
   1.75119367  3.89206916  8.43294963
   4.93851482  9.95516837  8.38277620
   8.97598056  3.76008333  8.52569730
  12.55822322 10.17392828  8.19725627
   1.14939390  9.71075558  8.54402065
   5.43494157  3.62691288  8.50456928
   8.61836848  9.64366794  8.48517360
  13.17164131  3.54727728  8.51718522
   0.43312267  6.59476415  8.99203363
   4.73590997  0.51232388  8.97938622
   8.16038865  6.62751235  9.04899025
  12.28001386  0.50171535  8.99071097
  11.36016140  8.19822182  9.64296708
  11.06345603  5.07351155  9.97319832
   7.24140406  8.80695155 10.57478263
   4.17427653  5.62145079 12.37160778
   6.53619740  6.48182532 12.71623032
   6.40291923  3.90791124 11.07954016
   6.79404953  6.39357889 10.96744351
   4.84701646  3.27356326 11.61069095
   5.98913174  3.93807608 12.80373834
   4.83684608  8.26049150 12.40818764
   4.48308233  5.55264834 10.64131395
   4.89204378  8.07203880 10.66094793
   7.34055114  8.85728055 12.33753123
   7.05333430 11.16531525 11.35518983
   5.70037296 10.74977019 12.41914687
   5.48336198 10.67206265 10.66526939
   5.57868370  4.07181373 11.79156211
   6.02554714  6.56958346 11.73979988
   4.97344538  5.46611353 11.62839662
   5.51240234  8.00128602 11.57484184
   6.65481947  9.01879696 11.48605693
   6.20031306 10.47950474 11.47752190
 


--------------------------------------------------------------------------------------------------------


 k-point  1 :   0.2500 0.2500 0.0000  plane waves:  111683
 k-point  2 :  -0.2500 0.2500 0.0000  plane waves:  111725

 maximum and minimum number of plane-waves per node :      7001     6957

 maximum number of plane-waves:    111725
 maximum index in each direction: 
   IXMAX=   27   IYMAX=   21   IZMAX=   43
   IXMIN=  -27   IYMIN=  -22   IZMIN=  -43


 real space projection operators:
  total allocation   :      22449.25 KBytes
  max/ min on nodes  :       1630.81       1294.54


 parallel 3D FFT for wavefunctions:
    minimum data exchange during FFTs selected (reduces bandwidth)
 parallel 3D FFT for charge:
    minimum data exchange during FFTs selected (reduces bandwidth)


 total amount of memory used by VASP MPI-rank0    92414. kBytes
=======================================================================

   base      :      30000. kBytes
   nonlr-proj:       9151. kBytes
   fftplans  :       4220. kBytes
   grid      :      12288. kBytes
   one-center:        342. kBytes
   wavefun   :      36413. kBytes
 
     INWAV:  cpu time   37.3438: real time   37.3342
 Broyden mixing: mesh for mixing (old mesh)
   NGX = 55   NGY = 45   NGZ = 87
  (NGX  =168   NGY  =140   NGZ  =280)
  gives a total of 215325 points

 initial charge density was supplied:
 number of electron    1214.0000011 magnetization      -0.0000000
 keeping initial charge density in first step


--------------------------------------------------------------------------------------------------------


 Maximum index for non-local projection operator          417
 Maximum index for augmentation-charges          473 (set IRDMAX)


--------------------------------------------------------------------------------------------------------


 First call to EWALD:  gamma=   0.108
 Maximum number of real-space cells 3x 4x 2
 Maximum number of reciprocal cells 3x 2x 4

    FEWALD:  cpu time    0.0343: real time    0.0346


--------------------------------------- Iteration      1(   1)  ---------------------------------------


    POTLOK:  cpu time    0.4639: real time    0.5001
    SETDIJ:  cpu time    0.0784: real time    0.0786
     EDDAV:  cpu time   25.9074: real time   25.9027
       DOS:  cpu time    0.0032: real time    0.0032
    CHARGE:  cpu time    1.0633: real time    1.0627
    MIXING:  cpu time    0.0157: real time    0.0171
    --------------------------------------------
      LOOP:  cpu time   27.5322: real time   27.5648

 eigenvalue-minimisations  :  6272
 total energy-change (2. order) :-0.1378622E+04  (-0.1344469E+00)
 number of electron    1214.0000010 magnetization      -0.0000000
 augmentation part       74.0133960 magnetization      -0.0000000

 Broyden mixing:
  rms(total) = 0.95459E-01    rms(broyden)= 0.95377E-01
  rms(prec ) = 0.96686E-01
  weight for this iteration     100.00

 Free energy of the ion-electron system (eV)
  ---------------------------------------------------
  alpha Z        PSCENC =      2166.38705829
  Ewald energy   TEWEN  =    390236.24325863
  -Hartree energ DENC   =   -487414.79002211
  -exchange      EXHF   =         0.00000000
  -V(xc)+E(xc)   XCENC  =      5338.06904293
  PAW double counting   =    130634.27072205  -129955.86343413
  entropy T*S    EENTRO =        -0.00000000
  eigenvalues    EBANDS =    -18738.20452704
  atomic energy  EATOM  =    106355.26625530
  Solvation  Ediel_sol  =         0.00000000
  ---------------------------------------------------
  free energy    TOTEN  =     -1378.62164607 eV

  energy without entropy =    -1378.62164607  energy(sigma->0) =    -1378.62164607


--------------------------------------------------------------------------------------------------------




--------------------------------------- Iteration      1(   2)  ---------------------------------------


    POTLOK:  cpu time    0.4277: real time    0.4484
    SETDIJ:  cpu time    0.0766: real time    0.0766
     EDDAV:  cpu time   25.1400: real time   25.1127
       DOS:  cpu time    0.0025: real time    0.0025
    CHARGE:  cpu time    1.0430: real time    1.0423
    MIXING:  cpu time    0.0095: real time    0.0105
    --------------------------------------------
      LOOP:  cpu time   26.6993: real time   26.6930

 eigenvalue-minimisations  :  6080
 total energy-change (2. order) :-0.1749116E+01  (-0.1198026E+00)
 number of electron    1214.0000010 magnetization      -0.0000000
 augmentation part       73.9338827 magnetization       0.0000000

 Broyden mixing:
  rms(total) = 0.41624E-01    rms(broyden)= 0.41504E-01
  rms(prec ) = 0.43806E-01
  weight for this iteration     100.00

 eigenvalues of (default mixing * dielectric matrix)
  average eigenvalue GAMMA=   0.7347
  0.7347

 Free energy of the ion-electron system (eV)
  ---------------------------------------------------
  alpha Z        PSCENC =      2166.38705829
  Ewald energy   TEWEN  =    390236.24325863
  -Hartree energ DENC   =   -487416.72592378
  -exchange      EXHF   =         0.00000000
  -V(xc)+E(xc)   XCENC  =      5338.17048479
  PAW double counting   =    130490.03453654  -129810.58953398
  entropy T*S    EENTRO =        -0.00000000
  eigenvalues    EBANDS =    -18739.15689824
  atomic energy  EATOM  =    106355.26625530
  Solvation  Ediel_sol  =         0.00000000
  ---------------------------------------------------
  free energy    TOTEN  =     -1380.37076245 eV

  energy without entropy =    -1380.37076245  energy(sigma->0) =    -1380.37076245


--------------------------------------------------------------------------------------------------------




--------------------------------------- Iteration      1(   3)  ---------------------------------------


    POTLOK:  cpu time    0.4274: real time    0.4504
    SETDIJ:  cpu time    0.0770: real time    0.0770
     EDDAV:  cpu time   27.2051: real time   27.1747
       DOS:  cpu time    0.0025: real time    0.0025
    CHARGE:  cpu time    1.0329: real time    1.0317
    MIXING:  cpu time    0.0082: real time    0.0081
    --------------------------------------------
      LOOP:  cpu time   28.7530: real time   28.7443

 eigenvalue-minimisations  :  6720
 total energy-change (2. order) :-0.9728397E-02  (-0.4369582E-02)
 number of electron    1214.0000011 magnetization      -0.0000000
 augmentation part       73.9676415 magnetization      -0.0000000

 Broyden mixing:
  rms(total) = 0.27959E-01    rms(broyden)= 0.27941E-01
  rms(prec ) = 0.28372E-01
  weight for this iteration     100.00

 eigenvalues of (default mixing * dielectric matrix)
  average eigenvalue GAMMA=   0.6896
  0.6896  0.6896

 Free energy of the ion-electron system (eV)
  ---------------------------------------------------
  alpha Z        PSCENC =      2166.38705829
  Ewald energy   TEWEN  =    390236.24325863
  -Hartree energ DENC   =   -487414.10292047
  -exchange      EXHF   =         0.00000000
  -V(xc)+E(xc)   XCENC  =      5337.96847358
  PAW double counting   =    130516.52415219  -129836.31543699
  entropy T*S    EENTRO =        -0.00000000
  eigenvalues    EBANDS =    -18742.35133138
  atomic energy  EATOM  =    106355.26625530
  Solvation  Ediel_sol  =         0.00000000
  ---------------------------------------------------
  free energy    TOTEN  =     -1380.38049085 eV

  energy without entropy =    -1380.38049085  energy(sigma->0) =    -1380.38049085


--------------------------------------------------------------------------------------------------------




--------------------------------------- Iteration      1(   4)  ---------------------------------------


    POTLOK:  cpu time    0.4389: real time    0.4502
    SETDIJ:  cpu time    0.0765: real time    0.0765
     EDDAV:  cpu time   23.6728: real time   23.6193
       DOS:  cpu time    0.0022: real time    0.0022
    CHARGE:  cpu time    1.0822: real time    1.0809
    MIXING:  cpu time    0.0088: real time    0.0093
    --------------------------------------------
      LOOP:  cpu time   25.2814: real time   25.2383

 eigenvalue-minimisations  :  5536
 total energy-change (2. order) :-0.4995734E-04  (-0.2262775E-03)
 number of electron    1214.0000011 magnetization      -0.0000000
 augmentation part       73.9630342 magnetization      -0.0000000

 Broyden mixing:
  rms(total) = 0.22521E-01    rms(broyden)= 0.22520E-01
  rms(prec ) = 0.22822E-01
  weight for this iteration     100.00

 eigenvalues of (default mixing * dielectric matrix)
  average eigenvalue GAMMA=   0.6830
  0.7689  0.7689  0.5110

 Free energy of the ion-electron system (eV)
  ---------------------------------------------------
  alpha Z        PSCENC =      2166.38705829
  Ewald energy   TEWEN  =    390236.24325863
  -Hartree energ DENC   =   -487414.77810579
  -exchange      EXHF   =         0.00000000
  -V(xc)+E(xc)   XCENC  =      5338.03757262
  PAW double counting   =    130546.15192680  -129865.89713131
  entropy T*S    EENTRO =        -0.00000000
  eigenvalues    EBANDS =    -18741.79137535
  atomic energy  EATOM  =    106355.26625530
  Solvation  Ediel_sol  =         0.00000000
  ---------------------------------------------------
  free energy    TOTEN  =     -1380.38054080 eV

  energy without entropy =    -1380.38054080  energy(sigma->0) =    -1380.38054080


--------------------------------------------------------------------------------------------------------




--------------------------------------- Iteration      1(   5)  ---------------------------------------


    POTLOK:  cpu time    0.4438: real time    0.4437
    SETDIJ:  cpu time    0.0772: real time    0.0772
     EDDAV:  cpu time   26.9366: real time   26.8981
       DOS:  cpu time    0.0021: real time    0.0021
    CHARGE:  cpu time    1.0821: real time    1.0809
    MIXING:  cpu time    0.0092: real time    0.0092
    --------------------------------------------
      LOOP:  cpu time   28.5511: real time   28.5112

 eigenvalue-minimisations  :  6592
 total energy-change (2. order) :-0.9244424E-05  (-0.1999018E-04)
 number of electron    1214.0000011 magnetization      -0.0000000
 augmentation part       73.9687086 magnetization      -0.0000000

 Broyden mixing:
  rms(total) = 0.18955E-01    rms(broyden)= 0.18955E-01
  rms(prec ) = 0.19211E-01
  weight for this iteration     100.00

 eigenvalues of (default mixing * dielectric matrix)
  average eigenvalue GAMMA=   0.7219
  0.8998  0.8998  0.5440  0.5440

 Free energy of the ion-electron system (eV)
  ---------------------------------------------------
  alpha Z        PSCENC =      2166.38705829
  Ewald energy   TEWEN  =    390236.24325863
  -Hartree energ DENC   =   -487414.81409577
  -exchange      EXHF   =         0.00000000
  -V(xc)+E(xc)   XCENC  =      5338.04181058
  PAW double counting   =    130564.16018498  -129883.86889914
  entropy T*S    EENTRO =        -0.00000000
  eigenvalues    EBANDS =    -18741.79612292
  atomic energy  EATOM  =    106355.26625530
  Solvation  Ediel_sol  =         0.00000000
  ---------------------------------------------------
  free energy    TOTEN  =     -1380.38055005 eV

  energy without entropy =    -1380.38055005  energy(sigma->0) =    -1380.38055005


--------------------------------------------------------------------------------------------------------




--------------------------------------- Iteration      1(   6)  ---------------------------------------


    POTLOK:  cpu time    0.4304: real time    0.4537
    SETDIJ:  cpu time    0.0769: real time    0.0769
     EDDAV:  cpu time   27.1142: real time   27.0621
       DOS:  cpu time    0.0020: real time    0.0020
    CHARGE:  cpu time    1.0844: real time    1.0831
    MIXING:  cpu time    0.0095: real time    0.0095
    --------------------------------------------
      LOOP:  cpu time   28.7174: real time   28.6872

 eigenvalue-minimisations  :  6656
 total energy-change (2. order) :-0.1257616E-04  (-0.2223812E-05)
 number of electron    1214.0000011 magnetization      -0.0000000
 augmentation part       73.9702212 magnetization      -0.0000000

 Broyden mixing:
  rms(total) = 0.16418E-01    rms(broyden)= 0.16418E-01
  rms(prec ) = 0.16651E-01
  weight for this iteration     100.00

 eigenvalues of (default mixing * dielectric matrix)
  average eigenvalue GAMMA=   0.7983
  1.1317  1.1317  0.5219  0.6030  0.6030

 Free energy of the ion-electron system (eV)
  ---------------------------------------------------
  alpha Z        PSCENC =      2166.38705829
  Ewald energy   TEWEN  =    390236.24325863
  -Hartree energ DENC   =   -487414.90126014
  -exchange      EXHF   =         0.00000000
  -V(xc)+E(xc)   XCENC  =      5338.04954770
  PAW double counting   =    130578.47410956  -129898.17064676
  entropy T*S    EENTRO =        -0.00000000
  eigenvalues    EBANDS =    -18741.72888520
  atomic energy  EATOM  =    106355.26625530
  Solvation  Ediel_sol  =         0.00000000
  ---------------------------------------------------
  free energy    TOTEN  =     -1380.38056262 eV

  energy without entropy =    -1380.38056262  energy(sigma->0) =    -1380.38056262


--------------------------------------------------------------------------------------------------------




--------------------------------------- Iteration      1(   7)  ---------------------------------------


    POTLOK:  cpu time    0.4301: real time    0.4554
    SETDIJ:  cpu time    0.0769: real time    0.0769
     EDDAV:  cpu time   27.2311: real time   27.1647
       DOS:  cpu time    0.0022: real time    0.0022
    CHARGE:  cpu time    1.0559: real time    1.0546
    MIXING:  cpu time    0.0098: real time    0.0097
    --------------------------------------------
      LOOP:  cpu time   28.8058: real time   28.7634

 eigenvalue-minimisations  :  6656
 total energy-change (2. order) :-0.7802068E-05  (-0.2420002E-05)
 number of electron    1214.0000011 magnetization      -0.0000000
 augmentation part       73.9715766 magnetization      -0.0000000

 Broyden mixing:
  rms(total) = 0.13000E-01    rms(broyden)= 0.13000E-01
  rms(prec ) = 0.13184E-01
  weight for this iteration     100.00

 eigenvalues of (default mixing * dielectric matrix)
  average eigenvalue GAMMA=   0.8517
  1.3322  1.3322  0.6782  0.6782  0.5446  0.5446

 Free energy of the ion-electron system (eV)
  ---------------------------------------------------
  alpha Z        PSCENC =      2166.38705829
  Ewald energy   TEWEN  =    390236.24325863
  -Hartree energ DENC   =   -487414.91176586
  -exchange      EXHF   =         0.00000000
  -V(xc)+E(xc)   XCENC  =      5338.05520251
  PAW double counting   =    130596.69108710  -129916.37393651
  entropy T*S    EENTRO =        -0.00000000
  eigenvalues    EBANDS =    -18741.73772989
  atomic energy  EATOM  =    106355.26625530
  Solvation  Ediel_sol  =         0.00000000
  ---------------------------------------------------
  free energy    TOTEN  =     -1380.38057043 eV

  energy without entropy =    -1380.38057043  energy(sigma->0) =    -1380.38057043


--------------------------------------------------------------------------------------------------------




--------------------------------------- Iteration      1(   8)  ---------------------------------------


    POTLOK:  cpu time    0.4368: real time    0.4499
    SETDIJ:  cpu time    0.0771: real time    0.0770
     EDDAV:  cpu time   26.0382: real time   25.9911
       DOS:  cpu time    0.0021: real time    0.0021
    CHARGE:  cpu time    1.0522: real time    1.0512
    MIXING:  cpu time    0.0102: real time    0.0102
    --------------------------------------------
      LOOP:  cpu time   27.6167: real time   27.5815

 eigenvalue-minimisations  :  6208
 total energy-change (2. order) :-0.5057431E-05  (-0.1716950E-05)
 number of electron    1214.0000011 magnetization      -0.0000000
 augmentation part       73.9733234 magnetization      -0.0000000

 Broyden mixing:
  rms(total) = 0.10742E-01    rms(broyden)= 0.10742E-01
  rms(prec ) = 0.10885E-01
  weight for this iteration     100.00

 eigenvalues of (default mixing * dielectric matrix)
  average eigenvalue GAMMA=   0.9015
  1.5560  1.5560  0.7590  0.7590  0.5260  0.5773  0.5773

 Free energy of the ion-electron system (eV)
  ---------------------------------------------------
  alpha Z        PSCENC =      2166.38705829
  Ewald energy   TEWEN  =    390236.24325863
  -Hartree energ DENC   =   -487414.91632955
  -exchange      EXHF   =         0.00000000
  -V(xc)+E(xc)   XCENC  =      5338.05819686
  PAW double counting   =    130608.88372293  -129928.55658540
  entropy T*S    EENTRO =        -0.00000000
  eigenvalues    EBANDS =    -18741.74615254
  atomic energy  EATOM  =    106355.26625530
  Solvation  Ediel_sol  =         0.00000000
  ---------------------------------------------------
  free energy    TOTEN  =     -1380.38057548 eV

  energy without entropy =    -1380.38057548  energy(sigma->0) =    -1380.38057548


--------------------------------------------------------------------------------------------------------




--------------------------------------- Iteration      1(   9)  ---------------------------------------


    POTLOK:  cpu time    0.4484: real time    0.4483
    SETDIJ:  cpu time    0.0766: real time    0.0764
     EDDAV:  cpu time   19.0461: real time   18.9930
       DOS:  cpu time    0.0023: real time    0.0023
    CHARGE:  cpu time    1.0549: real time    1.0535
    MIXING:  cpu time    0.0108: real time    0.0108
    --------------------------------------------
      LOOP:  cpu time   20.6389: real time   20.5843

 eigenvalue-minimisations  :  4000
 total energy-change (2. order) :-0.4164132E-05  (-0.4142222E-06)
 number of electron    1214.0000011 magnetization      -0.0000000
 augmentation part       73.9742189 magnetization      -0.0000000

 Broyden mixing:
  rms(total) = 0.93042E-02    rms(broyden)= 0.93042E-02
  rms(prec ) = 0.94314E-02
  weight for this iteration     100.00

 eigenvalues of (default mixing * dielectric matrix)
  average eigenvalue GAMMA=   1.0406
  2.0314  2.0314  0.9019  0.9019  0.6549  0.6549  0.5741  0.5741

 Free energy of the ion-electron system (eV)
  ---------------------------------------------------
  alpha Z        PSCENC =      2166.38705829
  Ewald energy   TEWEN  =    390236.24325863
  -Hartree energ DENC   =   -487414.91126417
  -exchange      EXHF   =         0.00000000
  -V(xc)+E(xc)   XCENC  =      5338.05926690
  PAW double counting   =    130616.68880242  -129936.36023628
  entropy T*S    EENTRO =        -0.00000000
  eigenvalues    EBANDS =    -18741.75372075
  atomic energy  EATOM  =    106355.26625530
  Solvation  Ediel_sol  =         0.00000000
  ---------------------------------------------------
  free energy    TOTEN  =     -1380.38057965 eV

  energy without entropy =    -1380.38057965  energy(sigma->0) =    -1380.38057965


--------------------------------------------------------------------------------------------------------




--------------------------------------- Iteration      1(  10)  ---------------------------------------


    POTLOK:  cpu time    0.4446: real time    0.4511
    SETDIJ:  cpu time    0.0768: real time    0.0768
     EDDAV:  cpu time   26.4894: real time   26.4437
       DOS:  cpu time    0.0027: real time    0.0027
    CHARGE:  cpu time    1.0485: real time    1.0473
    MIXING:  cpu time    0.0113: real time    0.0113
    --------------------------------------------
      LOOP:  cpu time   28.0732: real time   28.0329

 eigenvalue-minimisations  :  6432
 total energy-change (2. order) :-0.5604394E-05  (-0.2390394E-05)
 number of electron    1214.0000011 magnetization      -0.0000000
 augmentation part       73.9754890 magnetization      -0.0000000

 Broyden mixing:
  rms(total) = 0.56579E-02    rms(broyden)= 0.56578E-02
  rms(prec ) = 0.57389E-02
  weight for this iteration     100.00

 eigenvalues of (default mixing * dielectric matrix)
  average eigenvalue GAMMA=   1.1119
  2.3864  2.3864  1.0432  1.0432  0.6834  0.6834  0.5823  0.5994  0.5994

 Free energy of the ion-electron system (eV)
  ---------------------------------------------------
  alpha Z        PSCENC =      2166.38705829
  Ewald energy   TEWEN  =    390236.24325863
  -Hartree energ DENC   =   -487414.90003240
  -exchange      EXHF   =         0.00000000
  -V(xc)+E(xc)   XCENC  =      5338.06275296
  PAW double counting   =    130636.01519782  -129955.67903301
  entropy T*S    EENTRO =        -0.00000000
  eigenvalues    EBANDS =    -18741.77604283
  atomic energy  EATOM  =    106355.26625530
  Solvation  Ediel_sol  =         0.00000000
[...]
   -.987E+02 0.857E+02 -.161E+04   0.102E+03 -.877E+02 0.162E+04   -.348E+01 0.201E+01 -.117E+02   -.115E-03 0.898E-05 0.170E-03
   -.833E+01 -.418E+02 -.179E+04   0.813E+01 0.456E+02 0.181E+04   0.205E+00 -.376E+01 -.184E+02   -.287E-03 -.350E-03 -.861E-03
   0.502E+02 -.459E+02 -.176E+04   -.499E+02 0.497E+02 0.178E+04   -.276E+00 -.382E+01 -.181E+02   -.199E-03 0.418E-04 -.982E-03
   0.147E+03 -.135E+01 -.156E+04   -.158E+03 0.303E+01 0.157E+04   0.108E+02 -.169E+01 -.630E+01   0.609E-04 -.207E-03 -.717E-03
   -.361E+02 -.681E+02 -.180E+04   0.361E+02 0.728E+02 0.181E+04   -.228E-01 -.464E+01 -.184E+02   0.226E-03 -.948E-04 -.843E-03
   -.183E+03 -.217E+03 -.177E+04   0.191E+03 0.231E+03 0.178E+04   -.753E+01 -.138E+02 -.954E+01   0.483E-03 -.442E-03 -.913E-03
   -.150E+03 0.240E+03 -.181E+04   0.158E+03 -.254E+03 0.182E+04   -.815E+01 0.147E+02 -.129E+02   0.392E-03 0.333E-03 -.803E-03
   -.309E+02 -.561E+01 -.219E+03   0.338E+02 0.457E+01 0.215E+03   -.291E+01 0.105E+01 0.451E+01   -.166E-04 0.183E-04 -.459E-06
   0.664E+02 0.483E+00 -.244E+03   -.704E+02 0.287E+00 0.247E+03   0.401E+01 -.767E+00 -.367E+01   -.322E-04 -.152E-04 -.224E-05
   -.316E+02 0.919E+01 -.254E+03   0.341E+02 -.963E+01 0.259E+03   -.248E+01 0.442E+00 -.475E+01   -.566E-05 -.111E-04 0.160E-04
   -.392E+02 0.351E+02 -.221E+03   0.432E+02 -.361E+02 0.218E+03   -.401E+01 0.927E+00 0.347E+01   -.787E-05 -.288E-04 0.155E-05
   -.346E+02 0.150E+02 -.222E+03   0.384E+02 -.158E+02 0.218E+03   -.377E+01 0.811E+00 0.386E+01   -.180E-04 -.126E-04 -.364E-05
   0.447E+02 0.578E+02 -.226E+03   -.483E+02 -.619E+02 0.225E+03   0.366E+01 0.409E+01 0.939E+00   -.402E-04 -.313E-04 -.140E-04
   -.187E+02 0.292E+02 -.242E+03   0.207E+02 -.300E+02 0.247E+03   -.204E+01 0.726E+00 -.502E+01   -.581E-05 -.185E-04 0.147E-04
   0.577E+02 -.208E+02 -.250E+03   -.611E+02 0.221E+02 0.254E+03   0.337E+01 -.128E+01 -.409E+01   -.208E-04 0.480E-06 0.680E-05
   0.512E+02 0.305E+01 -.212E+03   -.536E+02 -.258E+01 0.208E+03   0.237E+01 -.470E+00 0.469E+01   -.422E-04 -.101E-04 -.431E-04
   0.555E+02 -.108E+02 -.211E+03   -.585E+02 0.112E+02 0.206E+03   0.303E+01 -.376E+00 0.430E+01   -.273E-04 -.101E-04 -.178E-04
   -.474E+02 -.620E+01 -.257E+03   0.508E+02 0.545E+01 0.261E+03   -.333E+01 0.754E+00 -.414E+01   0.721E-05 0.140E-04 0.166E-04
   -.421E+02 -.541E+02 -.237E+03   0.463E+02 0.575E+02 0.237E+03   -.418E+01 -.343E+01 0.548E+00   0.233E-04 0.452E-04 -.214E-04
   0.302E+02 -.345E+02 -.251E+03   -.327E+02 0.359E+02 0.255E+03   0.251E+01 -.140E+01 -.467E+01   -.116E-04 0.255E-04 0.538E-05
   0.408E+02 -.306E+02 -.227E+03   -.445E+02 0.316E+02 0.223E+03   0.367E+01 -.100E+01 0.405E+01   -.160E-04 0.392E-04 -.258E-04
   0.118E+02 0.136E+03 -.921E+03   -.123E+02 -.136E+03 0.921E+03   0.460E+00 0.108E+00 0.214E-01   -.931E-04 -.890E-04 -.715E-05
   -.203E+02 0.229E+02 -.939E+03   0.199E+02 -.230E+02 0.939E+03   0.449E+00 0.650E-01 0.318E+00   -.679E-04 -.462E-04 0.232E-04
   0.130E+03 0.409E+02 -.921E+03   -.130E+03 -.408E+02 0.921E+03   -.110E+00 -.106E+00 -.466E+00   -.119E-03 -.469E-04 -.304E-04
   0.116E+03 -.422E+02 -.930E+03   -.115E+03 0.422E+02 0.930E+03   -.367E+00 0.512E-02 -.406E+00   -.774E-04 -.904E-05 0.154E-05
   -.558E+02 -.542E+02 -.949E+03   0.554E+02 0.542E+02 0.949E+03   0.382E+00 0.625E-01 0.283E+00   -.281E-04 0.630E-04 0.902E-05
   0.216E+02 -.135E+03 -.951E+03   -.221E+02 0.134E+03 0.951E+03   0.479E+00 0.201E+00 0.958E-01   -.395E-05 0.126E-03 -.461E-04
 -----------------------------------------------------------------------------------------------
   0.274E+02 0.218E+02 0.709E+02   0.441E-12 0.455E-12 -.343E-10   -.274E+02 -.220E+02 -.712E+02   0.283E-02 0.122E-02 0.225E-01
 
 
 POSITION                                       TOTAL-FORCE (eV/Angst)
 -----------------------------------------------------------------------------------
      0.99046      3.89727      0.91670        -1.493900     -1.863195     -0.675871
      4.22806      9.97101      0.91670        -1.506283     -1.883168     -0.748104
      8.54576      3.89727      0.91670        -1.345836     -1.938277     -0.777455
     11.78336      9.97101      0.91670        -1.339340     -1.840279     -0.728617
      0.16045     10.12553      1.16818        -0.269444      1.649411      0.416192
      4.47815      4.05179      1.16818        -0.199721      1.710036      0.192374
      7.71575     10.12553      1.16818        -0.088569      1.774801      0.138221
     12.03345      4.05179      1.16818        -0.124308      1.818192      0.519752
      3.52055      0.82336      1.36715        -0.861425     -0.878695      1.551871
      6.75815      6.89709      1.36715        -0.845510     -0.877960      1.534269
     11.07585      0.82336      1.36715        -0.750013     -0.834520      1.712193
     14.31345      6.89709      1.36715        -0.948310     -0.946781      1.782170
      2.69053      7.05173      1.61862         1.457342      0.464982     -2.493176
      7.00822      0.97799      1.61862         1.590245      0.429914     -2.483762
     10.24583      7.05173      1.61862         1.771166      0.412759     -2.433813
     14.56352      0.97799      1.61862         1.517538      0.497440     -2.433546
      0.53539     11.93355      4.09578        -0.000317     -0.000084     -0.002158
      4.86153      5.87300      4.10046        -0.000075     -0.003828      0.004254
      8.12345     11.95421      4.10729         0.000559     -0.001223     -0.003004
     12.41335      5.86912      4.15118        -0.001030     -0.001224     -0.001735
      0.81675      6.00798      4.37554         0.005594     -0.002055      0.000976
      4.04667     12.08672      4.36437        -0.002403     -0.003612      0.006429
      8.37149      5.97903      4.35982         0.002595     -0.003993      0.001309
     11.59786     12.08550      4.38314         0.003656     -0.004068      0.005637
     -0.17598      2.79497      4.58949         0.002823      0.001319     -0.001473
      3.03088      8.86496      4.58391         0.000921      0.002703     -0.000180
      7.37097      2.77513      4.57455        -0.000892      0.005124     -0.001286
     10.66859      8.85896      4.58252         0.001903     -0.000750     -0.001036
      3.36036      2.93647      4.80894        -0.004026     -0.001161     -0.002262
      6.56370      9.02622      4.77889         0.001061     -0.001554      0.002341
     10.93791      2.97108      4.87757        -0.001753     -0.000513     -0.001763
     14.13670      8.98492      4.86163        -0.003007     -0.001485      0.003801
      1.16993      7.78815      7.53601        -0.003071     -0.002238      0.003717
      5.45946      1.69217      7.49883        -0.001039     -0.005615     -0.001348
      8.69002      7.88165      7.27467        -0.001426     -0.002759      0.003556
     13.06669      1.65872      7.52434        -0.004792     -0.007884     -0.001142
      1.48976      1.95462      7.48569         0.000378     -0.005873     -0.003614
      4.69723      8.00833      7.48583        -0.003379      0.004264      0.001638
      8.98835      1.91730      7.52647         0.001181     -0.005188     -0.000537
     12.25466      8.05934      7.71124         0.002605     -0.002303     -0.002314
     -0.54454     10.79470      7.77395         0.005996      0.003585     -0.004784
      3.74743      4.71729      7.80007        -0.003243      0.003726     -0.000540
      6.95902     10.78667      7.78109        -0.003665     -0.000327      0.008452
     11.46073      4.61463      7.95737        -0.004941      0.001363     -0.000197
     -0.24923      4.94073      8.04945         0.003903      0.012937     -0.000987
      2.92956     11.01071      8.04977         0.001946     -0.006411     -0.002481
      7.23112      4.85171      8.00130         0.000665     -0.000512      0.000092
     10.50060     11.00138      8.08307         0.001725      0.000389     -0.001784
     10.07883      6.71638      9.88304        -0.000088     -0.000790     -0.002784
      0.18233      2.09605      0.00000         0.271246      0.969479      1.260402
      3.41993      8.16979      0.00000         0.294320      0.998282      1.260832
      7.73763      2.09605      0.00000         0.259762      0.981920      1.277105
     10.97523      8.16979      0.00000         0.234450      0.979753      1.279157
      2.77584      5.24249      0.37900         0.001665     -0.930534      0.579867
      6.01345     11.31622      0.37900        -0.037494     -0.929268      0.582186
     10.33114      5.24249      0.37900        -0.118341     -0.921031      0.574112
     13.56875     11.31622      0.37900        -0.051768     -0.925652      0.563456
      2.16153     10.82255      0.59691         0.421055      1.206633     -0.191096
      6.47922      4.74881      0.59691         0.401483      1.222196     -0.190377
      9.71683     10.82255      0.59691         0.345249      1.182930     -0.197962
     14.03452      4.74881      0.59691         0.397615      1.171940     -0.219944
      2.73983      2.74654      1.05910         1.191950     -1.028900     -0.434732
      5.97744      8.82028      1.05910         1.167086     -1.058738     -0.407059
     10.29513      2.74654      1.05910         1.108458     -1.025287     -0.455499
     13.53273      8.82028      1.05910         1.129777     -1.017702     -0.471198
      0.94100      8.20246      1.47622        -1.095887     -0.305450     -0.908543
      5.25870      2.12872      1.47622        -1.112605     -0.311346     -0.896636
      8.49630      8.20246      1.47622        -1.192731     -0.322064     -0.891946
     12.81400      2.12872      1.47622        -1.151389     -0.327501     -0.915208
      1.51931      0.12646      1.93841         0.359673     -0.084657      0.203507
      4.75691      6.20019      1.93841         0.425667     -0.021861      0.212913
      9.07461      0.12646      1.93841         0.422430     -0.030592      0.257564
     12.31221      6.20019      1.93841         0.353848     -0.081929      0.351183
      0.90515      5.70640      2.15632        -0.360230      0.322792      0.099286
      4.14276     11.78014      2.15632        -0.345318      0.318294      0.127698
      8.46045      5.70640      2.15632        -0.410543      0.301123      0.181554
     11.69806     11.78014      2.15632        -0.409716      0.315922      0.177403
      0.26091      2.77910      2.53532         0.208770      0.392290      0.496172
      3.49852      8.85284      2.53532         0.237421      0.420605      0.571531
      7.81621      2.77910      2.53532         0.226653      0.393130      0.465586
     11.05382      8.85284      2.53532         0.265451      0.388589      0.503759
     -0.22056     10.11487      3.20405         0.001734     -0.000695      0.004417
      4.11966      4.05396      3.19911         0.004026      0.004725      0.007143
      7.35069     10.13211      3.19540        -0.005566     -0.003178      0.007971
     11.66898      4.04127      3.21219        -0.000316     -0.004460     -0.006179
      3.39685      1.13341      3.50235        -0.004068      0.001382      0.002302
      6.63449      7.20692      3.51426         0.005120      0.000091      0.001205
     10.95606      1.13774      3.52210        -0.007670      0.006703     -0.004137
     14.19445      7.20488      3.52149         0.003867      0.015508      0.004240
      2.81280      6.70793      3.84502        -0.005505     -0.001663      0.003156
      7.14115      0.61761      3.85101         0.016114      0.001483      0.000370
     10.36381      6.70118      3.85333         0.004514      0.001080      0.007849
     14.67881      0.63384      3.85335         0.009637      0.006125     -0.006490
      2.28601     10.81281      4.33533        -0.001505      0.003028     -0.002637
      6.60151      4.72831      4.33001        -0.004716     -0.004149     -0.005870
      9.84530     10.79340      4.33607        -0.004872      0.004925      0.000751
     14.16888      4.74124      4.36606        -0.007245     -0.012149     -0.003109
      1.60677      4.06703      4.60193         0.002927      0.006238     -0.000181
      4.82166     10.14351      4.62966        -0.003757      0.004879      0.004975
      9.13939      4.06401      4.64839        -0.001855      0.005643      0.001596
     12.38991     10.15770      4.65028        -0.006633     -0.001834     -0.009997
      1.04801      8.15060      5.14012        -0.000027      0.002869     -0.001629
      5.36772      2.05647      5.10185         0.003897      0.006004     -0.004223
      8.61522      8.14913      5.10788        -0.001084     -0.000597     -0.000756
     12.93256      2.05697      5.18474        -0.002101     -0.002121     -0.000904
      1.60813      1.58048      5.36306        -0.001093      0.004916      0.001809
      4.81334      7.66330      5.36531         0.001580     -0.000112      0.001298
      9.15360      1.58998      5.39857         0.001138     -0.007059      0.001121
     12.38126      7.67136      5.39580         0.000682      0.002721     -0.009983
     -0.24917     10.84826      5.74829         0.006844      0.002791      0.004782
      4.06351      4.80644      5.76728         0.004281      0.008912      0.001594
      7.30608     10.85173      5.75332        -0.004947      0.004146     -0.001403
     11.62867      4.76868      5.77512         0.002568      0.001026     -0.008197
      0.53964      5.97815      6.44581        -0.005637     -0.004067     -0.008230
      3.68674     12.05263      6.42895        -0.003722     -0.003802     -0.008630
      7.95263      5.99487      6.43666         0.000830     -0.009031     -0.003957
     11.15942     12.06229      6.43784        -0.002901      0.016398      0.000866
      2.97935      9.10912      6.76861         0.002927      0.002608      0.000179
      7.25094      3.03918      6.73258        -0.003224      0.003101      0.007900
     10.51492      9.05868      6.78919        -0.002953     -0.003448      0.010257
     -0.17829      3.05451      6.73921         0.003033     -0.011592      0.005429
      3.48700      2.59849      6.97041        -0.008837     -0.004257      0.006580
      6.69488      8.64901      6.94374         0.004626      0.013219     -0.010278
     11.00988      2.61078      7.10105        -0.005382     -0.005442      0.001322
     14.27363      8.63388      7.04779         0.002882     -0.007314     -0.001926
      3.02684      6.73066      7.89398        -0.002422      0.000855     -0.000733
      7.28552      0.63872      7.83005         0.002102     -0.003821     -0.009386
     10.44547      6.61072      7.78540         0.004665     -0.000520      0.004302
     14.90329      0.67305      7.87033        -0.001757     -0.001546      0.001604
      2.22854      0.04724      7.92185        -0.003864      0.000731      0.005139
      5.48716      6.13092      8.01152         0.005052     -0.002754     -0.002836
      9.71622      0.00370      8.02745        -0.005580      0.002112      0.007748
     13.03187      6.07314      7.86839        -0.000123      0.005123     -0.001111
      1.75119      3.89207      8.43295         0.001399     -0.001753     -0.003889
      4.93851      9.95517      8.38278         0.008994      0.015129      0.004276
      8.97598      3.76008      8.52570         0.000333     -0.001415      0.001953
     12.55822     10.17393      8.19726        -0.014035     -0.012845      0.002632
      1.14939      9.71076      8.54402        -0.008486      0.006347     -0.004453
      5.43494      3.62691      8.50457        -0.006654     -0.010005      0.001710
      8.61837      9.64367      8.48517         0.007026     -0.004239     -0.002399
     13.17164      3.54728      8.51719         0.004328     -0.006517      0.000988
      0.43312      6.59476      8.99203         0.005741      0.000926      0.004216
      4.73591      0.51232      8.97939        -0.002060      0.005345     -0.003556
      8.16039      6.62751      9.04899         0.002152      0.000008      0.010866
     12.28001      0.50172      8.99071         0.009254      0.004384      0.003725
     11.36016      8.19822      9.64297         0.010683      0.006120     -0.002330
     11.06346      5.07351      9.97320         0.002040     -0.001837     -0.000074
      7.24140      8.80695     10.57478         0.006714     -0.000196      0.007025
      4.17428      5.62145     12.37161         0.004674      0.007915      0.000281
      6.53620      6.48183     12.71623        -0.000074      0.003116      0.003228
      6.40292      3.90791     11.07954        -0.003431     -0.001133     -0.000042
      6.79405      6.39358     10.96744         0.000476      0.001806      0.003929
      4.84702      3.27356     11.61069        -0.018675      0.000833      0.004289
      5.98913      3.93808     12.80374        -0.004931      0.002530      0.002769
      4.83685      8.26049     12.40819         0.002026      0.003133      0.000393
      4.48308      5.55265     10.64131        -0.003186      0.007251      0.001726
      4.89204      8.07204     10.66095         0.006271      0.003179      0.004028
      7.34055      8.85728     12.33753         0.003479      0.002619      0.008272
      7.05333     11.16532     11.35519         0.006174      0.002442      0.002854
      5.70037     10.74977     12.41915         0.000120      0.005702      0.006036
      5.48336     10.67206     10.66527         0.004850      0.001633     -0.001506
      5.57868      4.07181     11.79156        -0.007711      0.005537      0.007643
      6.02555      6.56958     11.73980         0.001313     -0.001509      0.008489
      4.97345      5.46611     11.62840        -0.006050      0.001463      0.007950
      5.51240      8.00129     11.57484         0.001942      0.006704      0.006960
      6.65482      9.01880     11.48606        -0.003069      0.000502      0.003986
      6.20031     10.47950     11.47752         0.002678     -0.004892     -0.009660
 -----------------------------------------------------------------------------------
    total drift:                               -0.015812     -0.204376     -0.279404


--------------------------------------------------------------------------------------------------------



  FREE ENERGIE OF THE ION-ELECTRON SYSTEM (eV)
  ---------------------------------------------------
  free  energy   TOTEN  =     -1399.89815062 eV

  energy  without entropy=    -1399.89815062  energy(sigma->0) =    -1399.89815062
 


--------------------------------------------------------------------------------------------------------


    POTLOK:  cpu time    0.5855: real time    0.5852


--------------------------------------------------------------------------------------------------------


     LOOP+:  cpu time  362.8749: real time  362.5305
    4ORBIT:  cpu time    0.0000: real time    0.0000

 total amount of memory used by VASP MPI-rank0    92414. kBytes
=======================================================================

   base      :      30000. kBytes
   nonlr-proj:       9151. kBytes
   fftplans  :       4220. kBytes
   grid      :      12288. kBytes
   one-center:        342. kBytes
   wavefun   :      36413. kBytes
 
  
  
 General timing and accounting informations for this job:
 ========================================================
  
                  Total CPU time used (sec):      442.934
                            User time (sec):      429.011
                          System time (sec):       13.923
                         Elapsed time (sec):      443.975
  
                   Maximum memory used (kb):      933292.
                   Average memory used (kb):           0.
  
                          Minor page faults:        55151
                          Major page faults:           68
                 Voluntary context switches:         6054
