       N       E                     dE             d eps       ncg     rms          rms(c)
DAV:   1    -0.137102249510E+04   -0.13710E+04   -0.13399E+00  6304   0.980E-01    0.953E-01
DAV:   2    -0.137276815528E+04   -0.17457E+01   -0.11921E+00  6144   0.952E-01    0.411E-01
DAV:   3    -0.137277799524E+04   -0.98400E-02   -0.43798E-02  6848   0.230E-01    0.277E-01
DAV:   4    -0.137277804784E+04   -0.52597E-04   -0.21600E-03  5568   0.575E-02    0.224E-01
DAV:   5    -0.137277805655E+04   -0.87178E-05   -0.19797E-04  6656   0.181E-02    0.189E-01
DAV:   6    -0.137277806851E+04   -0.11960E-04   -0.22553E-05  7136   0.706E-03    0.163E-01
DAV:   7    -0.137277807542E+04   -0.69066E-05   -0.24188E-05  6848   0.833E-03    0.130E-01
DAV:   8    -0.137277808056E+04   -0.51410E-05   -0.17756E-05  6880   0.663E-03    0.106E-01
DAV:   9    -0.137277808481E+04   -0.42475E-05   -0.48209E-06  7296   0.326E-03    0.904E-02
DAV:  10    -0.137277809004E+04   -0.52324E-05   -0.13322E-05  6720   0.623E-03    0.611E-02
DAV:  11    -0.137277809426E+04   -0.42185E-05   -0.40081E-05  6528   0.104E-02    0.173E-02
DAV:  12    -0.137277809545E+04   -0.11954E-05   -0.56897E-06  7008   0.305E-03    0.112E-02
DAV:  13    -0.137277809565E+04   -0.20067E-06   -0.90415E-07  6400   0.153E-03    0.491E-03
DAV:  14    -0.137277809565E+04    0.78871E-08   -0.40063E-07  7248   0.830E-04    0.256E-03
DAV:  15    -0.137277809559E+04    0.61395E-07   -0.25234E-08  3200   0.322E-04    0.108E-03
DAV:  16    -0.137277809555E+04    0.32960E-07   -0.55229E-08  4352   0.306E-04    0.466E-04
DAV:  17    -0.137277809552E+04    0.27998E-07   -0.48068E-09  2944   0.117E-04    0.462E-04
DAV:  18    -0.137277809552E+04   -0.27649E-09   -0.18563E-09  3072   0.836E-05
   1 F= -.13920499E+04 E0= -.13920499E+04  d E =-.139205E+04  mag=    -0.0000
       N       E                     dE             d eps       ncg     rms          rms(c)
DAV:   1    -0.137277696882E+04    0.11267E-02   -0.58107E-01  5120   0.881E-01    0.123E-01
DAV:   2    -0.137277728389E+04   -0.31507E-03   -0.50338E-03  5600   0.816E-02    0.879E-02
DAV:   3    -0.137277720997E+04    0.73918E-04   -0.58655E-04  6208   0.433E-02    0.351E-02
DAV:   4    -0.137277721703E+04   -0.70614E-05   -0.13019E-04  6112   0.167E-02    0.171E-02
DAV:   5    -0.137277721301E+04    0.40208E-05   -0.41803E-05  6112   0.101E-02    0.753E-03
DAV:   6    -0.137277721235E+04    0.65914E-06   -0.50276E-06  6048   0.329E-03    0.418E-03
DAV:   7    -0.137277721231E+04    0.42739E-07   -0.36552E-06  6592   0.273E-03    0.208E-03
DAV:   8    -0.137277721233E+04   -0.18612E-07   -0.49385E-07  5888   0.117E-03    0.124E-03
DAV:   9    -0.137277721246E+04   -0.13509E-06   -0.21719E-07  5184   0.694E-04    0.562E-04
DAV:  10    -0.137277721261E+04   -0.14622E-06   -0.88623E-08  5344   0.533E-04    0.585E-04
DAV:  11    -0.137277721275E+04   -0.13919E-06   -0.48478E-08  4800   0.362E-04    0.272E-04
DAV:  12    -0.137277721288E+04   -0.13683E-06   -0.16217E-08  3648   0.223E-04    0.135E-04
DAV:  13    -0.137277721303E+04   -0.14904E-06   -0.12771E-08  3648   0.171E-04    0.171E-04
DAV:  14    -0.137277721314E+04   -0.10463E-06   -0.61198E-09  3200   0.123E-04    0.942E-05
DAV:  15    -0.137277721322E+04   -0.85915E-07   -0.69720E-09  3232   0.101E-04    0.686E-05
DAV:  16    -0.137277721326E+04   -0.34895E-07   -0.20177E-09  3072   0.572E-05    0.572E-05
DAV:  17    -0.137277721330E+04   -0.37631E-07   -0.23741E-09  3072   0.634E-05    0.275E-05
DAV:  18    -0.137277721330E+04   -0.94005E-08   -0.46681E-10  3072   0.380E-05
   2 F= -.13920492E+04 E0= -.13920492E+04  d E =0.696151E-03  mag=     0.0000
       N       E                     dE             d eps       ncg     rms          rms(c)
DAV:   1    -0.137277695345E+04    0.25984E-03   -0.11614E+00  5120   0.124E+00    0.137E-01
DAV:   2    -0.137277771123E+04   -0.75777E-03   -0.10194E-02  5504   0.109E-01    0.892E-02
DAV:   3    -0.137277761689E+04    0.94333E-04   -0.89461E-04  6432   0.409E-02    0.467E-02
DAV:   4    -0.137277760338E+04    0.13517E-04   -0.23053E-04  5568   0.237E-02    0.176E-02
DAV:   5    -0.137277760010E+04    0.32795E-05   -0.65776E-05  5568   0.126E-02    0.979E-03
DAV:   6    -0.137277760045E+04   -0.35396E-06   -0.12873E-05  5984   0.398E-03    0.583E-03
DAV:   7    -0.137277760009E+04    0.35569E-06   -0.30867E-06  6784   0.261E-03    0.319E-03
DAV:   8    -0.137277760021E+04   -0.11793E-06   -0.92853E-07  6144   0.152E-03    0.206E-03
DAV:   9    -0.137277760031E+04   -0.95330E-07   -0.37065E-07  6496   0.895E-04    0.719E-04
DAV:  10    -0.137277760053E+04   -0.21768E-06   -0.71423E-08  4736   0.382E-04    0.351E-04
DAV:  11    -0.137277760074E+04   -0.21138E-06   -0.21933E-08  4032   0.236E-04    0.248E-04
DAV:  12    -0.137277760093E+04   -0.19063E-06   -0.13755E-08  3616   0.192E-04    0.124E-04
DAV:  13    -0.137277760107E+04   -0.14435E-06   -0.11499E-08  3584   0.132E-04    0.997E-05
DAV:  14    -0.137277760118E+04   -0.10779E-06   -0.36126E-09  3104   0.779E-05    0.504E-05
DAV:  15    -0.137277760126E+04   -0.77460E-07   -0.35775E-09  3072   0.638E-05    0.415E-05
DAV:  16    -0.137277760130E+04   -0.42783E-07   -0.14554E-09  3072   0.485E-05    0.245E-05
DAV:  17    -0.137277760132E+04   -0.17011E-07   -0.54339E-10  3072   0.324E-05    0.175E-05
DAV:  18    -0.137277760133E+04   -0.14057E-07   -0.21170E-10  3072   0.290E-05    0.113E-05
DAV:  19    -0.137277760134E+04   -0.76398E-08    0.19713E-11  3072   0.228E-05
   3 F= -.13920495E+04 E0= -.13920495E+04  d E =-.298399E-03  mag=     0.0000
       N       E                     dE             d eps       ncg     rms          rms(c)
DAV:   1    -0.137277720398E+04    0.39735E-03   -0.11566E+00  5120   0.124E+00    0.132E-01
DAV:   2    -0.137277777767E+04   -0.57369E-03   -0.97066E-03  5760   0.115E-01    0.948E-02
DAV:   3    -0.137277764156E+04    0.13610E-03   -0.10629E-03  6304   0.493E-02    0.463E-02
DAV:   4    -0.137277763753E+04    0.40295E-05   -0.19952E-04  6112   0.202E-02    0.197E-02
DAV:   5    -0.137277763342E+04    0.41150E-05   -0.49409E-05  5568   0.122E-02    0.892E-03
DAV:   6    -0.137277763326E+04    0.15373E-06   -0.69659E-06  5632   0.376E-03    0.459E-03
DAV:   7    -0.137277763352E+04   -0.26048E-06   -0.37536E-06  6048   0.301E-03    0.271E-03
DAV:   8    -0.137277763377E+04   -0.24446E-06   -0.76890E-07  6240   0.139E-03    0.144E-03
DAV:   9    -0.137277763436E+04   -0.59252E-06   -0.35113E-07  5728   0.100E-03    0.762E-04
DAV:  10    -0.137277763498E+04   -0.61918E-06   -0.13379E-07  5696   0.689E-04    0.607E-04
DAV:  11    -0.137277763552E+04   -0.54312E-06   -0.79924E-08  5408   0.486E-04    0.274E-04
DAV:  12    -0.137277763618E+04   -0.65246E-06   -0.35342E-08  4384   0.357E-04    0.212E-04
DAV:  13    -0.137277763653E+04   -0.35301E-06   -0.26183E-08  4224   0.212E-04    0.152E-04
DAV:  14    -0.137277763682E+04   -0.29209E-06   -0.93606E-09  3360   0.121E-04    0.873E-05
DAV:  15    -0.137277763704E+04   -0.22036E-06   -0.98713E-09  3680   0.893E-05    0.724E-05
DAV:  16    -0.137277763714E+04   -0.10192E-06   -0.26570E-09  3136   0.708E-05    0.408E-05
DAV:  17    -0.137277763725E+04   -0.10685E-06   -0.49728E-09  3264   0.656E-05    0.586E-05
DAV:  18    -0.137277763728E+04   -0.28682E-07   -0.73081E-10  3136   0.477E-05    0.398E-05
DAV:  19    -0.137277763731E+04   -0.29235E-07   -0.14493E-09  3072   0.560E-05    0.489E-05
DAV:  20    -0.137277763732E+04   -0.12165E-07   -0.12030E-10  3072   0.414E-05    0.265E-05
DAV:  21    -0.137277763733E+04   -0.74651E-08    0.12091E-10  3072   0.322E-05
   4 F= -.13920500E+04 E0= -.13920500E+04  d E =-.533197E-03  mag=    -0.0000
       N       E                     dE             d eps       ncg     rms          rms(c)
DAV:   1    -0.137277665889E+04    0.97843E-03   -0.11564E+00  5120   0.125E+00    0.194E-01
DAV:   2    -0.137277768624E+04   -0.10273E-02   -0.13263E-02  5600   0.124E-01    0.151E-01
DAV:   3    -0.137277748446E+04    0.20178E-03   -0.12976E-03  6208   0.580E-02    0.859E-02
DAV:   4    -0.137277748645E+04   -0.19911E-05   -0.56845E-04  5984   0.400E-02    0.285E-02
DAV:   5    -0.137277746709E+04    0.19357E-04   -0.18579E-04  5792   0.234E-02    0.153E-02
DAV:   6    -0.137277746650E+04    0.59308E-06   -0.43449E-05  5984   0.849E-03    0.862E-03
DAV:   7    -0.137277746551E+04    0.99363E-06   -0.10056E-05  6656   0.486E-03    0.410E-03
DAV:   8    -0.137277746539E+04    0.12013E-06   -0.23836E-06  5760   0.279E-03    0.313E-03
DAV:   9    -0.137277746525E+04    0.13456E-06   -0.71733E-07  6592   0.159E-03    0.138E-03
DAV:  10    -0.137277746572E+04   -0.47051E-06   -0.70671E-07  5664   0.150E-03    0.130E-03
DAV:  11    -0.137277746625E+04   -0.52880E-06   -0.25651E-07  6208   0.104E-03    0.852E-04
DAV:  12    -0.137277746689E+04   -0.63554E-06   -0.18772E-07  5088   0.667E-04    0.365E-04
DAV:  13    -0.137277746743E+04   -0.54025E-06   -0.39665E-08  4704   0.412E-04    0.211E-04
DAV:  14    -0.137277746786E+04   -0.43500E-06   -0.32236E-08  4464   0.245E-04    0.179E-04
DAV:  15    -0.137277746824E+04   -0.37513E-06   -0.10792E-08  3616   0.119E-04    0.139E-04
DAV:  16    -0.137277746860E+04   -0.36237E-06   -0.15629E-08  4000   0.117E-04    0.858E-05
DAV:  17    -0.137277746873E+04   -0.13456E-06   -0.31728E-09  3136   0.762E-05    0.385E-05
DAV:  18    -0.137277746884E+04   -0.10821E-06   -0.39431E-09  3232   0.700E-05    0.457E-05
DAV:  19    -0.137277746889E+04   -0.45009E-07   -0.16583E-09  3072   0.622E-05    0.544E-05
DAV:  20    -0.137277746892E+04   -0.27474E-07   -0.14188E-09  3072   0.687E-05    0.285E-05
DAV:  21    -0.137277746892E+04   -0.77853E-08   -0.84013E-10  3072   0.603E-05
   5 F= -.13920490E+04 E0= -.13920490E+04  d E =0.100380E-02  mag=    -0.0000
       N       E                     dE             d eps       ncg     rms          rms(c)
DAV:   1    -0.137277673805E+04    0.73086E-03   -0.11528E+00  5120   0.112E+00    0.954E-02
DAV:   2    -0.137277742486E+04   -0.68680E-03   -0.91388E-03  5568   0.911E-02    0.621E-02
DAV:   3    -0.137277734847E+04    0.76391E-04   -0.75155E-04  6208   0.297E-02    0.307E-02
DAV:   4    -0.137277732852E+04    0.19945E-04   -0.14998E-04  5536   0.150E-02    0.125E-02
DAV:   5    -0.137277732904E+04   -0.51589E-06   -0.25022E-05  5536   0.686E-03    0.735E-03
DAV:   6    -0.137277732852E+04    0.51205E-06   -0.43445E-06  5632   0.250E-03    0.291E-03
DAV:   7    -0.137277732853E+04   -0.17608E-08   -0.11376E-06  7088   0.161E-03    0.140E-03
DAV:   8    -0.137277732860E+04   -0.71552E-07   -0.24693E-07  6416   0.724E-04    0.736E-04
DAV:   9    -0.137277732875E+04   -0.14745E-06   -0.48552E-08  4704   0.419E-04    0.403E-04
DAV:  10    -0.137277732895E+04   -0.19978E-06   -0.56929E-08  5184   0.433E-04    0.248E-04
DAV:  11    -0.137277732911E+04   -0.16944E-06   -0.35722E-08  4640   0.288E-04    0.162E-04
DAV:  12    -0.137277732925E+04   -0.13143E-06   -0.88506E-09  3808   0.153E-04    0.116E-04
DAV:  13    -0.137277732939E+04   -0.14207E-06   -0.98026E-09  3552   0.139E-04    0.764E-05
DAV:  14    -0.137277732946E+04   -0.69325E-07   -0.44350E-09  3360   0.831E-05    0.600E-05
DAV:  15    -0.137277732951E+04   -0.56913E-07   -0.19149E-09  3104   0.597E-05    0.380E-05
DAV:  16    -0.137277732956E+04   -0.42215E-07   -0.13575E-09  3072   0.491E-05    0.243E-05
DAV:  17    -0.137277732959E+04   -0.36744E-07   -0.14575E-09  3072   0.505E-05    0.245E-05
DAV:  18    -0.137277732960E+04   -0.88912E-08   -0.29630E-10  3072   0.445E-05
   6 F= -.13920491E+04 E0= -.13920491E+04  d E =-.589161E-04  mag=     0.0000
       N       E                     dE             d eps       ncg     rms          rms(c)
DAV:   1    -0.137277675955E+04    0.57004E-03   -0.11633E+00  5120   0.114E+00    0.190E-01
DAV:   2    -0.137277743835E+04   -0.67879E-03   -0.10826E-02  5664   0.114E-01    0.156E-01
DAV:   3    -0.137277729406E+04    0.14429E-03   -0.14403E-03  6560   0.614E-02    0.717E-02
DAV:   4    -0.137277729987E+04   -0.58182E-05   -0.36053E-04  6208   0.295E-02    0.260E-02
DAV:   5    -0.137277728398E+04    0.15898E-04   -0.16855E-04  5696   0.240E-02    0.111E-02
DAV:   6    -0.137277728429E+04   -0.31570E-06   -0.23135E-05  5536   0.651E-03    0.615E-03
DAV:   7    -0.137277728441E+04   -0.11308E-06   -0.54601E-06  6880   0.353E-03    0.353E-03
DAV:   8    -0.137277728456E+04   -0.15867E-06   -0.91670E-07  5568   0.193E-03    0.207E-03
DAV:   9    -0.137277728503E+04   -0.46146E-06   -0.52352E-07  6656   0.151E-03    0.924E-04
DAV:  10    -0.137277728578E+04   -0.75738E-06   -0.35321E-07  5696   0.106E-03    0.950E-04
DAV:  11    -0.137277728661E+04   -0.82287E-06   -0.18186E-07  6000   0.747E-04    0.468E-04
DAV:  12    -0.137277728715E+04   -0.54373E-06   -0.78676E-08  5504   0.474E-04    0.264E-04
DAV:  13    -0.137277728768E+04   -0.52695E-06   -0.27488E-08  4384   0.266E-04    0.197E-04
DAV:  14    -0.137277728805E+04   -0.37430E-06   -0.14702E-08  3904   0.168E-04    0.107E-04
DAV:  15    -0.137277728850E+04   -0.45187E-06   -0.22623E-08  4224   0.159E-04    0.902E-05
DAV:  16    -0.137277728866E+04   -0.15947E-06   -0.63053E-09  3488   0.126E-04    0.492E-05
DAV:  17    -0.137277728879E+04   -0.13097E-06   -0.58176E-09  3424   0.109E-04    0.414E-05
DAV:  18    -0.137277728888E+04   -0.85434E-07   -0.38847E-09  3168   0.106E-04    0.330E-05
DAV:  19    -0.137277728893E+04   -0.55850E-07   -0.37137E-09  3168   0.101E-04    0.271E-05
DAV:  20    -0.137277728896E+04   -0.22483E-07   -0.12203E-09  3072   0.645E-05    0.239E-05
DAV:  21    -0.137277728897E+04   -0.10812E-07   -0.59579E-11  3072   0.324E-05    0.118E-05
DAV:  22    -0.137277728898E+04   -0.95024E-08    0.34240E-10  3072   0.260E-05
   7 F= -.13920499E+04 E0= -.13920499E+04  d E =-.798443E-03  mag=     0.0000
       N       E                     dE             d eps       ncg     rms          rms(c)
DAV:   1    -0.137277695638E+04    0.33259E-03   -0.11566E+00  5120   0.116E+00    0.185E-01
DAV:   2    -0.137277804034E+04   -0.10840E-02   -0.13378E-02  5824   0.115E-01    0.143E-01
DAV:   3    -0.137277786215E+04    0.17819E-03   -0.12241E-03  6400   0.545E-02    0.814E-02
DAV:   4    -0.137277786515E+04   -0.29984E-05   -0.57100E-04  5888   0.398E-02    0.289E-02
DAV:   5    -0.137277784191E+04    0.23241E-04   -0.25181E-04  5696   0.284E-02    0.134E-02
DAV:   6    -0.137277784282E+04   -0.90343E-06   -0.36023E-05  5632   0.707E-03    0.771E-03
DAV:   7    -0.137277784236E+04    0.45850E-06   -0.83284E-06  6528   0.423E-03    0.485E-03
DAV:   8    -0.137277784192E+04    0.44081E-06   -0.20040E-06  5856   0.271E-03    0.351E-03
DAV:   9    -0.137277784163E+04    0.28181E-06   -0.12339E-06  6560   0.247E-03    0.114E-03
DAV:  10    -0.137277784194E+04   -0.30102E-06   -0.81828E-07  5856   0.149E-03    0.151E-03
DAV:  11    -0.137277784227E+04   -0.33710E-06   -0.28077E-07  5856   0.825E-04    0.829E-04
DAV:  12    -0.137277784281E+04   -0.53851E-06   -0.12578E-07  5776   0.739E-04    0.313E-04
DAV:  13    -0.137277784329E+04   -0.47610E-06   -0.76866E-08  5216   0.544E-04    0.209E-04
DAV:  14    -0.137277784362E+04   -0.33395E-06   -0.40333E-08  4064   0.230E-04    0.157E-04
DAV:  15    -0.137277784393E+04   -0.31348E-06   -0.89861E-09  3488   0.136E-04    0.948E-05
DAV:  16    -0.137277784422E+04   -0.29017E-06   -0.13239E-08  3872   0.108E-04    0.619E-05
DAV:  17    -0.137277784438E+04   -0.15259E-06   -0.40724E-09  3200   0.745E-05    0.473E-05
DAV:  18    -0.137277784447E+04   -0.89291E-07   -0.26583E-09  3072   0.625E-05    0.309E-05
DAV:  19    -0.137277784453E+04   -0.60609E-07   -0.36416E-09  3200   0.782E-05    0.264E-05
DAV:  20    -0.137277784455E+04   -0.18699E-07   -0.16401E-09  3136   0.685E-05    0.264E-05
DAV:  21    -0.137277784456E+04   -0.98516E-08   -0.38985E-10  3072   0.384E-05
   8 F= -.13920495E+04 E0= -.13920495E+04  d E =0.402573E-03  mag=     0.0000
       N       E                     dE             d eps       ncg     rms          rms(c)
DAV:   1    -0.137277663508E+04    0.12095E-02   -0.11706E+00  5120   0.112E+00    0.314E-01
DAV:   2    -0.137277728399E+04   -0.64892E-03   -0.11113E-02  5792   0.120E-01    0.260E-01
DAV:   3    -0.137277714162E+04    0.14238E-03   -0.26763E-03  5920   0.985E-02    0.535E-02
DAV:   4    -0.137277712479E+04    0.16824E-04   -0.63149E-04  5728   0.368E-02    0.317E-02
DAV:   5    -0.137277711509E+04    0.96977E-05   -0.14925E-04  6528   0.179E-02    0.160E-02
DAV:   6    -0.137277711279E+04    0.23089E-05   -0.26477E-05  6944   0.753E-03    0.679E-03
DAV:   7    -0.137277711269E+04    0.93482E-07   -0.30236E-06  6912   0.242E-03    0.344E-03
DAV:   8    -0.137277711308E+04   -0.39066E-06   -0.75377E-07  6928   0.140E-03    0.149E-03
DAV:   9    -0.137277711360E+04   -0.52180E-06   -0.31947E-07  6048   0.911E-04    0.871E-04
DAV:  10    -0.137277711425E+04   -0.64098E-06   -0.14886E-07  5664   0.573E-04    0.522E-04
DAV:  11    -0.137277711493E+04   -0.68892E-06   -0.82837E-08  4960   0.516E-04    0.300E-04
DAV:  12    -0.137277711555E+04   -0.61152E-06   -0.76414E-08  5056   0.376E-04    0.255E-04
DAV:  13    -0.137277711594E+04   -0.39443E-06   -0.23724E-08  4064   0.183E-04    0.174E-04
DAV:  14    -0.137277711620E+04   -0.26359E-06   -0.93984E-09  3520   0.107E-04    0.104E-04
DAV:  15    -0.137277711642E+04   -0.22072E-06   -0.83499E-09  3712   0.883E-05    0.693E-05
DAV:  16    -0.137277711657E+04   -0.14259E-06   -0.40932E-09  3232   0.843E-05    0.386E-05
DAV:  17    -0.137277711669E+04   -0.11829E-06   -0.61059E-09  3424   0.101E-04    0.339E-05
DAV:  18    -0.137277711673E+04   -0.39989E-07   -0.27692E-09  3104   0.922E-05    0.247E-05
DAV:  19    -0.137277711676E+04   -0.37107E-07   -0.16411E-09  3072   0.620E-05    0.211E-05
DAV:  20    -0.137277711678E+04   -0.13330E-07   -0.43688E-10  3072   0.413E-05    0.199E-05
DAV:  21    -0.137277711678E+04   -0.72614E-08    0.27294E-10  3072   0.230E-05
   9 F= -.13920491E+04 E0= -.13920491E+04  d E =0.370455E-03  mag=     0.0000
       N       E                     dE             d eps       ncg     rms          rms(c)
DAV:   1    -0.137277688495E+04    0.23183E-03   -0.11476E+00  5120   0.112E+00    0.238E-01
DAV:   2    -0.137277792236E+04   -0.10374E-02   -0.13033E-02  5824   0.102E-01    0.173E-01
DAV:   3    -0.137277774846E+04    0.17390E-03   -0.14615E-03  6400   0.519E-02    0.879E-02
DAV:   4    -0.137277774204E+04    0.64200E-05   -0.37939E-04  5792   0.236E-02    0.335E-02
DAV:   5    -0.137277772570E+04    0.16348E-04   -0.17620E-04  5888   0.205E-02    0.134E-02
DAV:   6    -0.137277772637E+04   -0.67610E-06   -0.25003E-05  5696   0.624E-03    0.627E-03
DAV:   7    -0.137277772914E+04   -0.27709E-05   -0.70285E-06  6624   0.384E-03    0.344E-03
DAV:   8    -0.137277773097E+04   -0.18292E-05   -0.10494E-06  5856   0.151E-03    0.192E-03
DAV:   9    -0.137277773461E+04   -0.36343E-05   -0.10019E-06  5664   0.158E-03    0.137E-03
DAV:  10    -0.137277773802E+04   -0.34108E-05   -0.43306E-07  5632   0.830E-04    0.132E-03
DAV:  11    -0.137277774104E+04   -0.30190E-05   -0.58054E-07  5488   0.946E-04    0.566E-04
DAV:  12    -0.137277774300E+04   -0.19657E-05   -0.20442E-07  5280   0.550E-04    0.701E-04
DAV:  13    -0.137277774407E+04   -0.10641E-05   -0.71150E-08  4864   0.305E-04    0.316E-04
DAV:  14    -0.137277774525E+04   -0.11830E-05   -0.62432E-08  4576   0.201E-04    0.145E-04
DAV:  15    -0.137277774580E+04   -0.55126E-06   -0.18526E-08  4192   0.108E-04    0.985E-05
DAV:  16    -0.137277774621E+04   -0.40997E-06   -0.13615E-08  3936   0.929E-05    0.809E-05
DAV:  17    -0.137277774643E+04   -0.22278E-06   -0.66284E-09  3520   0.679E-05    0.721E-05
DAV:  18    -0.137277774653E+04   -0.10154E-06   -0.25491E-09  3072   0.645E-05    0.314E-05
DAV:  19    -0.137277774659E+04   -0.59503E-07   -0.21218E-09  3072   0.688E-05    0.274E-05
DAV:  20    -0.137277774663E+04   -0.33586E-07   -0.12447E-09  3072   0.601E-05    0.372E-05
DAV:  21    -0.137277774664E+04   -0.14552E-07   -0.74278E-11  3072   0.341E-05    0.297E-05
DAV:  22    -0.137277774665E+04   -0.72323E-08    0.30190E-10  3072   0.320E-05
  10 F= -.13920501E+04 E0= -.13920501E+04  d E =-.952547E-03  mag=    -0.0000
       N       E                     dE             d eps       ncg     rms          rms(c)
DAV:   1    -0.137277703250E+04    0.71414E-03   -0.61400E-01  5120   0.827E-01    0.149E-01
DAV:   2    -0.137277754177E+04   -0.50927E-03   -0.77806E-03  5920   0.832E-02    0.101E-01
DAV:   3    -0.137277742292E+04    0.11885E-03   -0.93103E-04  6336   0.411E-02    0.563E-02
DAV:   4    -0.137277741393E+04    0.89935E-05   -0.21394E-04  5632   0.201E-02    0.224E-02
DAV:   5    -0.137277740626E+04    0.76622E-05   -0.79073E-05  5440   0.144E-02    0.927E-03
DAV:   6    -0.137277740577E+04    0.49094E-06   -0.11681E-05  5696   0.456E-03    0.465E-03
DAV:   7    -0.137277740605E+04   -0.27810E-06   -0.29287E-06  6368   0.260E-03    0.253E-03
DAV:   8    -0.137277740658E+04   -0.53208E-06   -0.47245E-07  6400   0.121E-03    0.145E-03
DAV:   9    -0.137277740775E+04   -0.11705E-05   -0.30200E-07  5600   0.124E-03    0.703E-04
DAV:  10    -0.137277740893E+04   -0.11772E-05   -0.24011E-07  5600   0.827E-04    0.677E-04
DAV:  11    -0.137277741049E+04   -0.15592E-05   -0.17815E-07  4992   0.682E-04    0.391E-04
DAV:  12    -0.137277741140E+04   -0.91032E-06   -0.10952E-07  5088   0.452E-04    0.382E-04
DAV:  13    -0.137277741189E+04   -0.49362E-06   -0.33207E-08  4608   0.263E-04    0.215E-04
DAV:  14    -0.137277741237E+04   -0.47292E-06   -0.13448E-08  3936   0.133E-04    0.128E-04
DAV:  15    -0.137277741284E+04   -0.46811E-06   -0.16853E-08  4128   0.108E-04    0.947E-05
DAV:  16    -0.137277741310E+04   -0.25937E-06   -0.59275E-09  3520   0.806E-05    0.502E-05
DAV:  17    -0.137277741323E+04   -0.13901E-06   -0.24304E-09  3136   0.543E-05    0.328E-05
DAV:  18    -0.137277741333E+04   -0.94238E-07   -0.20949E-09  3072   0.518E-05    0.311E-05
DAV:  19    -0.137277741337E+04   -0.44281E-07   -0.11714E-09  3072   0.442E-05    0.246E-05
DAV:  20    -0.137277741339E+04   -0.19238E-07   -0.51200E-10  3136   0.437E-05    0.903E-06
DAV:  21    -0.137277741340E+04   -0.64465E-08    0.34783E-11  3072   0.330E-05
  11 F= -.13920492E+04 E0= -.13920492E+04  d E =0.849702E-03  mag=    -0.0000
       N       E                     dE             d eps       ncg     rms          rms(c)
DAV:   1    -0.137277785527E+04   -0.44188E-03   -0.79867E-02  5056   0.182E-01    0.118E-01
DAV:   2    -0.137277774042E+04    0.11485E-03   -0.11122E-03  5184   0.240E-02    0.665E-02
DAV:   3    -0.137277770820E+04    0.32224E-04   -0.53515E-04  5312   0.152E-02    0.221E-02
DAV:   4    -0.137277769911E+04    0.90897E-05   -0.52233E-05  5184   0.489E-03    0.135E-02
DAV:   5    -0.137277769797E+04    0.11445E-05   -0.16988E-05  5104   0.278E-03    0.230E-03
DAV:   6    -0.137277769800E+04   -0.32946E-07   -0.12682E-06  4800   0.843E-04    0.108E-03
DAV:   7    -0.137277769809E+04   -0.92667E-07   -0.15857E-07  4832   0.295E-04    0.752E-04
DAV:   8    -0.137277769817E+04   -0.82611E-07   -0.35596E-08  4096   0.208E-04    0.213E-04
DAV:   9    -0.137277769824E+04   -0.69893E-07   -0.12043E-08  3712   0.124E-04    0.155E-04
DAV:  10    -0.137277769830E+04   -0.57888E-07   -0.30127E-09  3232   0.763E-05    0.712E-05
DAV:  11    -0.137277769836E+04   -0.60711E-07   -0.22237E-09  3136   0.720E-05    0.488E-05
DAV:  12    -0.137277769842E+04   -0.53697E-07   -0.25734E-09  3168   0.787E-05    0.319E-05
DAV:  13    -0.137277769846E+04   -0.39508E-07   -0.28098E-09  3200   0.771E-05    0.252E-05
DAV:  14    -0.137277769848E+04   -0.18728E-07   -0.16874E-09  3136   0.644E-05    0.164E-05
DAV:  15    -0.137277769849E+04   -0.11729E-07   -0.75124E-10  3072   0.443E-05    0.140E-05
DAV:  16    -0.137277769849E+04   -0.60827E-08   -0.93938E-11  3040   0.281E-05
  12 F= -.13920495E+04 E0= -.13920495E+04  d E =-.233804E-03  mag=     0.0000
       N       E                     dE             d eps       ncg     rms          rms(c)
DAV:   1    -0.137277763079E+04    0.67695E-04   -0.79456E-02  4960   0.185E-01    0.116E-01
DAV:   2    -0.137277754114E+04    0.89652E-04   -0.11409E-03  5184   0.235E-02    0.675E-02
DAV:   3    -0.137277751390E+04    0.27244E-04   -0.57293E-04  5376   0.159E-02    0.232E-02
DAV:   4    -0.137277750371E+04    0.10189E-04   -0.56184E-05  5280   0.510E-03    0.142E-02
DAV:   5    -0.137277750237E+04    0.13416E-05   -0.20732E-05  5056   0.291E-03    0.246E-03
DAV:   6    -0.137277750247E+04   -0.10336E-06   -0.13269E-06  4672   0.823E-04    0.109E-03
DAV:   7    -0.137277750255E+04   -0.84241E-07   -0.25913E-07  4864   0.343E-04    0.658E-04
DAV:   8    -0.137277750267E+04   -0.11803E-06   -0.49505E-08  4160   0.188E-04    0.210E-04
DAV:   9    -0.137277750276E+04   -0.90426E-07   -0.12287E-08  3584   0.101E-04    0.151E-04
DAV:  10    -0.137277750287E+04   -0.10944E-06   -0.76037E-09  3504   0.979E-05    0.738E-05
DAV:  11    -0.137277750293E+04   -0.63272E-07   -0.36862E-09  3136   0.857E-05    0.573E-05
DAV:  12    -0.137277750300E+04   -0.64363E-07   -0.57075E-09  3264   0.103E-04    0.330E-05
DAV:  13    -0.137277750304E+04   -0.38970E-07   -0.58983E-09  3296   0.117E-04    0.322E-05
DAV:  14    -0.137277750305E+04   -0.16298E-07   -0.20669E-09  3136   0.716E-05    0.204E-05
DAV:  15    -0.137277750308E+04   -0.25626E-07   -0.15404E-09  3072   0.459E-05    0.231E-05
DAV:  16    -0.137277750308E+04   -0.35943E-08   -0.18431E-10  3072   0.324E-05
  13 F= -.13920490E+04 E0= -.13920490E+04  d E =0.428739E-03  mag=    -0.0000
       N       E                     dE             d eps       ncg     rms          rms(c)
DAV:   1    -0.137277769205E+04   -0.18897E-03   -0.75600E-02  4928   0.212E-01    0.970E-02
DAV:   2    -0.137277769319E+04   -0.11367E-05   -0.99208E-04  5216   0.228E-02    0.606E-02
DAV:   3    -0.137277767200E+04    0.21186E-04   -0.42502E-04  5664   0.150E-02    0.186E-02
DAV:   4    -0.137277766552E+04    0.64794E-05   -0.43420E-05  5504   0.481E-03    0.124E-02
DAV:   5    -0.137277766364E+04    0.18795E-05   -0.19383E-05  4896   0.294E-03    0.278E-03
DAV:   6    -0.137277766380E+04   -0.16172E-06   -0.14820E-06  4672   0.907E-04    0.122E-03
DAV:   7    -0.137277766396E+04   -0.15434E-06   -0.33483E-07  4720   0.404E-04    0.570E-04
DAV:   8    -0.137277766414E+04   -0.17816E-06   -0.52799E-08  4000   0.197E-04    0.290E-04
DAV:   9    -0.137277766428E+04   -0.13983E-06   -0.15233E-08  3648   0.107E-04    0.140E-04
DAV:  10    -0.137277766441E+04   -0.13436E-06   -0.62337E-09  3328   0.819E-05    0.793E-05
DAV:  11    -0.137277766451E+04   -0.96596E-07   -0.49103E-09  3264   0.698E-05    0.623E-05
DAV:  12    -0.137277766458E+04   -0.72760E-07   -0.40772E-09  3104   0.853E-05    0.338E-05
DAV:  13    -0.137277766462E+04   -0.44049E-07   -0.48114E-09  3168   0.973E-05    0.294E-05
DAV:  14    -0.137277766464E+04   -0.16502E-07   -0.17155E-09  3072   0.638E-05    0.229E-05
DAV:  15    -0.137277766466E+04   -0.16633E-07   -0.64749E-10  3072   0.361E-05    0.168E-05
DAV:  16    -0.137277766466E+04   -0.49622E-08    0.12435E-10  3072   0.260E-05
  14 F= -.13920494E+04 E0= -.13920494E+04  d E =-.389897E-03  mag=     0.0000
       N       E                     dE             d eps       ncg     rms          rms(c)
DAV:   1    -0.137277778989E+04   -0.12523E-03   -0.74743E-02  5056   0.210E-01    0.952E-02
DAV:   2    -0.137277776537E+04    0.24513E-04   -0.67897E-04  5184   0.206E-02    0.553E-02
DAV:   3    -0.137277775477E+04    0.10607E-04   -0.24362E-04  5248   0.111E-02    0.150E-02
DAV:   4    -0.137277775122E+04    0.35472E-05   -0.22064E-05  5248   0.349E-03    0.900E-03
DAV:   5    -0.137277775084E+04    0.37992E-06   -0.94535E-06  4928   0.214E-03    0.172E-03
DAV:   6    -0.137277775091E+04   -0.68045E-07   -0.69122E-07  4640   0.681E-04    0.899E-04
DAV:   7    -0.137277775094E+04   -0.37340E-07   -0.10098E-07  4704   0.254E-04    0.403E-04
DAV:   8    -0.137277775101E+04   -0.67215E-07   -0.18158E-08  3808   0.130E-04    0.186E-04
DAV:   9    -0.137277775108E+04   -0.66357E-07   -0.51893E-09  3296   0.863E-05    0.969E-05
DAV:  10    -0.137277775114E+04   -0.60390E-07   -0.29207E-09  3168   0.709E-05    0.610E-05
DAV:  11    -0.137277775120E+04   -0.58266E-07   -0.19755E-09  3072   0.609E-05    0.421E-05
DAV:  12    -0.137277775125E+04   -0.53318E-07   -0.27436E-09  3136   0.700E-05    0.235E-05
DAV:  13    -0.137277775128E+04   -0.30253E-07   -0.15561E-09  3136   0.667E-05    0.232E-05
DAV:  14    -0.137277775130E+04   -0.20445E-07   -0.65906E-10  3072   0.402E-05    0.160E-05
DAV:  15    -0.137277775132E+04   -0.19019E-07   -0.34135E-10  3072   0.307E-05    0.142E-05
DAV:  16    -0.137277775132E+04   -0.34488E-08    0.20500E-10  3072   0.213E-05
  15 F= -.13920495E+04 E0= -.13920495E+04  d E =-.850654E-04  mag=    -0.0000
       N       E                     dE             d eps       ncg     rms          rms(c)
DAV:   1    -0.137277726780E+04    0.48352E-03   -0.74714E-02  5056   0.208E-01    0.933E-02
DAV:   2    -0.137277724105E+04    0.26752E-04   -0.61632E-04  5184   0.194E-02    0.542E-02
DAV:   3    -0.137277723314E+04    0.79081E-05   -0.22819E-04  5600   0.107E-02    0.141E-02
DAV:   4    -0.137277722935E+04    0.37853E-05   -0.23393E-05  5376   0.336E-03    0.863E-03
DAV:   5    -0.137277722886E+04    0.49350E-06   -0.89938E-06  4960   0.195E-03    0.158E-03
DAV:   6    -0.137277722892E+04   -0.62064E-07   -0.54112E-07  4672   0.570E-04    0.842E-04
DAV:   7    -0.137277722896E+04   -0.42797E-07   -0.85672E-08  4640   0.235E-04    0.378E-04
DAV:   8    -0.137277722905E+04   -0.90688E-07   -0.16699E-08  3744   0.128E-04    0.201E-04
DAV:   9    -0.137277722915E+04   -0.97527E-07   -0.83611E-09  3712   0.928E-05    0.999E-05
DAV:  10    -0.137277722923E+04   -0.80632E-07   -0.24012E-09  3136   0.675E-05    0.639E-05
DAV:  11    -0.137277722932E+04   -0.84736E-07   -0.37025E-09  3328   0.593E-05    0.547E-05
DAV:  12    -0.137277722936E+04   -0.47803E-07   -0.14225E-09  3072   0.597E-05    0.328E-05
DAV:  13    -0.137277722943E+04   -0.63927E-07   -0.38507E-09  3264   0.744E-05    0.471E-05
DAV:  14    -0.137277722944E+04   -0.93714E-08   -0.72346E-10  3136   0.557E-05
  16 F= -.13920488E+04 E0= -.13920488E+04  d E =0.732018E-03  mag=    -0.0000
       N       E                     dE             d eps       ncg     rms          rms(c)
DAV:   1    -0.137277740900E+04   -0.17957E-03   -0.79879E-02  5056   0.219E-01    0.119E-01
DAV:   2    -0.137277733256E+04    0.76444E-04   -0.13903E-03  5184   0.294E-02    0.706E-02
DAV:   3    -0.137277729370E+04    0.38856E-04   -0.69746E-04  5536   0.185E-02    0.256E-02
DAV:   4    -0.137277728271E+04    0.10989E-04   -0.67626E-05  5056   0.573E-03    0.162E-02
DAV:   5    -0.137277728031E+04    0.24046E-05   -0.26679E-05  5024   0.338E-03    0.291E-03
DAV:   6    -0.137277728044E+04   -0.13110E-06   -0.19219E-06  4800   0.102E-03    0.118E-03
DAV:   7    -0.137277728066E+04   -0.21537E-06   -0.30758E-07  4928   0.410E-04    0.776E-04
DAV:   8    -0.137277728084E+04   -0.18242E-06   -0.46242E-08  4032   0.196E-04    0.302E-04
DAV:   9    -0.137277728101E+04   -0.17257E-06   -0.18771E-08  3840   0.127E-04    0.159E-04
DAV:  10    -0.137277728116E+04   -0.14783E-06   -0.53269E-09  3488   0.101E-04    0.939E-05
DAV:  11    -0.137277728132E+04   -0.16362E-06   -0.84646E-09  3680   0.111E-04    0.647E-05
DAV:  12    -0.137277728142E+04   -0.95897E-07   -0.61770E-09  3392   0.140E-04    0.413E-05
DAV:  13    -0.137277728153E+04   -0.10812E-06   -0.99010E-09  3808   0.155E-04    0.434E-05
DAV:  14    -0.137277728156E+04   -0.29002E-07   -0.26041E-09  3104   0.109E-04    0.305E-05
DAV:  15    -0.137277728160E+04   -0.48545E-07   -0.16755E-09  3072   0.677E-05    0.325E-05
DAV:  16    -0.137277728163E+04   -0.29555E-07   -0.42233E-10  3072   0.450E-05    0.189E-05
DAV:  17    -0.137277728165E+04   -0.14566E-07    0.66969E-11  2944   0.288E-05    0.127E-05
DAV:  18    -0.137277728166E+04   -0.12282E-07    0.30071E-10  3072   0.243E-05    0.807E-06
DAV:  19    -0.137277728167E+04   -0.74651E-08    0.45018E-10  2944   0.164E-05
  17 F= -.13920492E+04 E0= -.13920492E+04  d E =-.369528E-03  mag=    -0.0000
       N       E                     dE             d eps       ncg     rms          rms(c)
DAV:   1    -0.137277794511E+04   -0.66345E-03   -0.79954E-02  4416   0.195E-01    0.116E-01
DAV:   2    -0.137277784105E+04    0.10406E-03   -0.10922E-03  4480   0.233E-02    0.670E-02
DAV:   3    -0.137277781265E+04    0.28400E-04   -0.61960E-04  4576   0.164E-02    0.242E-02
DAV:   4    -0.137277780104E+04    0.11613E-04   -0.55530E-05  4576   0.512E-03    0.156E-02
DAV:   5    -0.137277779912E+04    0.19173E-05   -0.22460E-05  4640   0.315E-03    0.316E-03
DAV:   6    -0.137277779932E+04   -0.20239E-06   -0.22334E-06  4928   0.108E-03    0.119E-03
DAV:   7    -0.137277779973E+04   -0.40774E-06   -0.28483E-07  4768   0.379E-04    0.109E-03
DAV:   8    -0.137277780035E+04   -0.62083E-06   -0.86690E-08  4128   0.254E-04    0.324E-04
DAV:   9    -0.137277780085E+04   -0.49762E-06   -0.42867E-08  3872   0.153E-04    0.358E-04
DAV:  10    -0.137277780133E+04   -0.48082E-06   -0.16450E-08  3840   0.120E-04    0.127E-04
DAV:  11    -0.137277780179E+04   -0.45907E-06   -0.13704E-08  3744   0.982E-05    0.917E-05
DAV:  12    -0.137277780217E+04   -0.38026E-06   -0.12896E-08  3808   0.864E-05    0.664E-05
DAV:  13    -0.137277780237E+04   -0.20533E-06   -0.61683E-09  3520   0.840E-05    0.494E-05
DAV:  14    -0.137277780251E+04   -0.13137E-06   -0.42550E-09  3200   0.824E-05    0.317E-05
DAV:  15    -0.137277780256E+04   -0.57698E-07   -0.27190E-09  3072   0.724E-05    0.286E-05
DAV:  16    -0.137277780260E+04   -0.32131E-07   -0.13520E-09  3072   0.516E-05    0.202E-05
DAV:  17    -0.137277780261E+04   -0.10696E-07   -0.15452E-10  3072   0.332E-05    0.144E-05
DAV:  18    -0.137277780261E+04   -0.40600E-08    0.46278E-10  2912   0.219E-05
  18 F= -.13920495E+04 E0= -.13920495E+04  d E =-.359187E-03  mag=    -0.0000
       N       E                     dE             d eps       ncg     rms          rms(c)
DAV:   1    -0.137277750360E+04    0.29901E-03   -0.79796E-02  4352   0.192E-01    0.116E-01
DAV:   2    -0.137277740393E+04    0.99674E-04   -0.11374E-03  4480   0.228E-02    0.676E-02
DAV:   3    -0.137277736913E+04    0.34799E-04   -0.63568E-04  4672   0.169E-02    0.242E-02
DAV:   4    -0.137277735743E+04    0.11702E-04   -0.63339E-05  4864   0.540E-03    0.152E-02
DAV:   5    -0.137277735589E+04    0.15393E-05   -0.21799E-05  5056   0.313E-03    0.310E-03
DAV:   6    -0.137277735622E+04   -0.33742E-06   -0.19266E-06  4896   0.107E-03    0.115E-03
DAV:   7    -0.137277735671E+04   -0.48440E-06   -0.29527E-07  4992   0.411E-04    0.968E-04
DAV:   8    -0.137277735748E+04   -0.77533E-06   -0.95122E-08  4192   0.263E-04    0.297E-04
DAV:   9    -0.137277735800E+04   -0.51555E-06   -0.41508E-08  4192   0.165E-04    0.279E-04
DAV:  10    -0.137277735854E+04   -0.54146E-06   -0.21505E-08  3904   0.122E-04    0.143E-04
DAV:  11    -0.137277735905E+04   -0.50711E-06   -0.27830E-08  4128   0.119E-04    0.134E-04
DAV:  12    -0.137277735935E+04   -0.29783E-06   -0.12762E-08  3872   0.106E-04    0.700E-05
DAV:  13    -0.137277735951E+04   -0.16639E-06   -0.69256E-09  3584   0.957E-05    0.509E-05
DAV:  14    -0.137277735960E+04   -0.90193E-07   -0.29159E-09  3072   0.789E-05    0.338E-05
DAV:  15    -0.137277735970E+04   -0.96712E-07   -0.54045E-09  3360   0.834E-05    0.250E-05
DAV:  16    -0.137277735973E+04   -0.27401E-07   -0.83340E-10  3072   0.517E-05    0.202E-05
DAV:  17    -0.137277735975E+04   -0.20242E-07   -0.18980E-11  3008   0.274E-05    0.100E-05
DAV:  18    -0.137277735977E+04   -0.23254E-07    0.19495E-10  3072   0.255E-05    0.138E-05
DAV:  19    -0.137277735978E+04   -0.70868E-08    0.58372E-10  2944   0.169E-05
  19 F= -.13920491E+04 E0= -.13920491E+04  d E =0.369593E-03  mag=    -0.0000
       N       E                     dE             d eps       ncg     rms          rms(c)
DAV:   1    -0.137277754305E+04   -0.18328E-03   -0.78388E-02  4384   0.199E-01    0.110E-01
DAV:   2    -0.137277748183E+04    0.61224E-04   -0.11289E-03  4672   0.243E-02    0.647E-02
DAV:   3    -0.137277745536E+04    0.26468E-04   -0.54020E-04  4960   0.159E-02    0.216E-02
DAV:   4    -0.137277744630E+04    0.90557E-05   -0.57692E-05  4704   0.513E-03    0.141E-02
DAV:   5    -0.137277744486E+04    0.14481E-05   -0.18302E-05  4608   0.290E-03    0.326E-03
DAV:   6    -0.137277744489E+04   -0.36729E-07   -0.21208E-06  4800   0.107E-03    0.111E-03
DAV:   7    -0.137277744511E+04   -0.21867E-06   -0.34364E-07  5024   0.423E-04    0.961E-04
DAV:   8    -0.137277744542E+04   -0.30961E-06   -0.58759E-08  3936   0.192E-04    0.309E-04
DAV:   9    -0.137277744567E+04   -0.25047E-06   -0.34169E-08  4128   0.141E-04    0.228E-04
DAV:  10    -0.137277744589E+04   -0.21867E-06   -0.64779E-09  3552   0.785E-05    0.129E-04
DAV:  11    -0.137277744612E+04   -0.23346E-06   -0.11027E-08  3872   0.786E-05    0.764E-05
DAV:  12    -0.137277744630E+04   -0.17426E-06   -0.62550E-09  3488   0.817E-05    0.585E-05
DAV:  13    -0.137277744639E+04   -0.88679E-07   -0.34119E-09  3072   0.773E-05    0.336E-05
DAV:  14    -0.137277744645E+04   -0.59619E-07   -0.27271E-09  3072   0.722E-05    0.250E-05
DAV:  15    -0.137277744651E+04   -0.60434E-07   -0.28292E-09  3072   0.611E-05    0.167E-05
DAV:  16    -0.137277744652E+04   -0.18190E-07   -0.71971E-10  3072   0.371E-05    0.118E-05
DAV:  17    -0.137277744654E+04   -0.14625E-07   -0.22582E-10  3072   0.251E-05    0.752E-06
DAV:  18    -0.137277744654E+04   -0.62864E-08    0.20572E-10  3072   0.190E-05
  20 F= -.13920493E+04 E0= -.13920493E+04  d E =-.205156E-03  mag=    -0.0000
       N       E                     dE             d eps       ncg     rms          rms(c)
DAV:   1    -0.137277781826E+04   -0.37172E-03   -0.79924E-02  4448   0.194E-01    0.116E-01
DAV:   2    -0.137277771151E+04    0.10675E-03   -0.10473E-03  4960   0.232E-02    0.655E-02
DAV:   3    -0.137277768249E+04    0.29015E-04   -0.49421E-04  4928   0.148E-02    0.216E-02
DAV:   4    -0.137277767412E+04    0.83706E-05   -0.46256E-05  4672   0.472E-03    0.142E-02
DAV:   5    -0.137277767315E+04    0.97227E-06   -0.13695E-05  5200   0.259E-03    0.322E-03
DAV:   6    -0.137277767316E+04   -0.53406E-08   -0.17792E-06  4608   0.966E-04    0.105E-03
DAV:   7    -0.137277767336E+04   -0.20076E-06   -0.23391E-07  5088   0.372E-04    0.802E-04
DAV:   8    -0.137277767359E+04   -0.23167E-06   -0.31477E-08  3936   0.158E-04    0.341E-04
DAV:   9    -0.137277767385E+04   -0.26500E-06   -0.25799E-08  4032   0.125E-04    0.182E-04
DAV:  10    -0.137277767405E+04   -0.20149E-06   -0.45216E-09  3360   0.712E-05    0.127E-04
DAV:  11    -0.137277767428E+04   -0.22414E-06   -0.78451E-09  3744   0.697E-05    0.708E-05
DAV:  12    -0.137277767443E+04   -0.15000E-06   -0.32785E-09  3328   0.594E-05    0.493E-05
DAV:  13    -0.137277767457E+04   -0.13757E-06   -0.52269E-09  3520   0.594E-05    0.357E-05
DAV:  14    -0.137277767462E+04   -0.51994E-07   -0.86959E-10  3136   0.460E-05    0.232E-05
DAV:  15    -0.137277767466E+04   -0.45184E-07   -0.16758E-09  3072   0.485E-05    0.222E-05
DAV:  16    -0.137277767467E+04   -0.88185E-08   -0.37624E-10  3136   0.405E-05
  21 F= -.13920494E+04 E0= -.13920494E+04  d E =-.714882E-04  mag=     0.0000
       N       E                     dE             d eps       ncg     rms          rms(c)
DAV:   1    -0.137277763330E+04    0.41365E-04   -0.81272E-02  4448   0.193E-01    0.123E-01
DAV:   2    -0.137277749924E+04    0.13405E-03   -0.12305E-03  4736   0.250E-02    0.685E-02
DAV:   3    -0.137277746205E+04    0.37191E-04   -0.56697E-04  5184   0.158E-02    0.238E-02
DAV:   4    -0.137277745291E+04    0.91437E-05   -0.52695E-05  4864   0.493E-03    0.155E-02
DAV:   5    -0.137277745130E+04    0.16092E-05   -0.16376E-05  5088   0.279E-03    0.305E-03
DAV:   6    -0.137277745128E+04    0.17229E-07   -0.17822E-06  4704   0.959E-04    0.106E-03
DAV:   7    -0.137277745144E+04   -0.16132E-06   -0.25588E-07  5088   0.389E-04    0.773E-04
DAV:   8    -0.137277745165E+04   -0.20741E-06   -0.40834E-08  4064   0.194E-04    0.268E-04
DAV:   9    -0.137277745187E+04   -0.21771E-06   -0.22439E-08  4064   0.125E-04    0.192E-04
DAV:  10    -0.137277745207E+04   -0.20524E-06   -0.90451E-09  3616   0.118E-04    0.963E-05
DAV:  11    -0.137277745226E+04   -0.18431E-06   -0.10477E-08  3808   0.125E-04    0.719E-05
DAV:  12    -0.137277745241E+04   -0.14940E-06   -0.11649E-08  3840   0.161E-04    0.461E-05
DAV:  13    -0.137277745250E+04   -0.96305E-07   -0.90437E-09  3616   0.154E-04    0.368E-05
DAV:  14    -0.137277745256E+04   -0.57116E-07   -0.26040E-09  3072   0.823E-05    0.221E-05
DAV:  15    -0.137277745262E+04   -0.54686E-07   -0.23667E-09  3136   0.562E-05    0.209E-05
DAV:  16    -0.137277745264E+04   -0.23734E-07   -0.54724E-10  3072   0.410E-05    0.133E-05
DAV:  17    -0.137277745266E+04   -0.16415E-07    0.69998E-11  3072   0.261E-05    0.977E-06
DAV:  18    -0.137277745267E+04   -0.13810E-07    0.30285E-10  3072   0.216E-05    0.110E-05
DAV:  19    -0.137277745267E+04   -0.42055E-08    0.54879E-10  2912   0.132E-05
  22 F= -.13920492E+04 E0= -.13920492E+04  d E =0.215460E-03  mag=    -0.0000
       N       E                     dE             d eps       ncg     rms          rms(c)
DAV:   1    -0.137277790724E+04   -0.45457E-03   -0.75953E-02  4448   0.198E-01    0.972E-02
DAV:   2    -0.137277789858E+04    0.86667E-05   -0.96096E-04  4832   0.208E-02    0.581E-02
DAV:   3    -0.137277788652E+04    0.12053E-04   -0.34083E-04  5184   0.124E-02    0.182E-02
DAV:   4    -0.137277788044E+04    0.60866E-05   -0.33522E-05  4832   0.392E-03    0.114E-02
DAV:   5    -0.137277787928E+04    0.11528E-05   -0.14967E-05  4480   0.253E-03    0.200E-03
DAV:   6    -0.137277787940E+04   -0.11765E-06   -0.98007E-07  4736   0.701E-04    0.104E-03
DAV:   7    -0.137277787953E+04   -0.12953E-06   -0.21509E-07  4800   0.347E-04    0.658E-04
DAV:   8    -0.137277787968E+04   -0.15231E-06   -0.52704E-08  4128   0.198E-04    0.237E-04
DAV:   9    -0.137277787984E+04   -0.15543E-06   -0.21472E-08  3936   0.124E-04    0.174E-04
DAV:  10    -0.137277788001E+04   -0.17090E-06   -0.89478E-09  3744   0.930E-05    0.862E-05
DAV:  11    -0.137277788012E+04   -0.10760E-06   -0.51203E-09  3360   0.793E-05    0.547E-05
DAV:  12    -0.137277788021E+04   -0.94369E-07   -0.55112E-09  3264   0.950E-05    0.367E-05
DAV:  13    -0.137277788027E+04   -0.58557E-07   -0.42619E-09  3104   0.942E-05    0.298E-05
DAV:  14    -0.137277788030E+04   -0.28129E-07   -0.18256E-09  3072   0.623E-05    0.195E-05
DAV:  15    -0.137277788033E+04   -0.28405E-07   -0.14024E-09  3072   0.472E-05    0.173E-05
DAV:  16    -0.137277788034E+04   -0.12544E-07   -0.28853E-10  3072   0.322E-05    0.137E-05
DAV:  17    -0.137277788035E+04   -0.53551E-08    0.23113E-10  2944   0.222E-05
  23 F= -.13920497E+04 E0= -.13920497E+04  d E =-.460290E-03  mag=    -0.0000
       N       E                     dE             d eps       ncg     rms          rms(c)
DAV:   1    -0.137277666919E+04    0.12112E-02   -0.78862E-02  4480   0.174E-01    0.113E-01
DAV:   2    -0.137277658585E+04    0.83337E-04   -0.11429E-03  4576   0.216E-02    0.669E-02
DAV:   3    -0.137277655552E+04    0.30326E-04   -0.62309E-04  4672   0.162E-02    0.240E-02
DAV:   4    -0.137277654385E+04    0.11670E-04   -0.62030E-05  4448   0.520E-03    0.152E-02
DAV:   5    -0.137277654210E+04    0.17583E-05   -0.22190E-05  4704   0.302E-03    0.311E-03
DAV:   6    -0.137277654230E+04   -0.20745E-06   -0.20118E-06  4736   0.974E-04    0.106E-03
DAV:   7    -0.137277654271E+04   -0.41060E-06   -0.26935E-07  4832   0.369E-04    0.866E-04
DAV:   8    -0.137277654327E+04   -0.55708E-06   -0.78047E-08  4192   0.260E-04    0.274E-04
DAV:   9    -0.137277654369E+04   -0.41578E-06   -0.36537E-08  3952   0.162E-04    0.273E-04
DAV:  10    -0.137277654418E+04   -0.49209E-06   -0.25997E-08  4192   0.133E-04    0.110E-04
DAV:  11    -0.137277654443E+04   -0.25197E-06   -0.78796E-09  3696   0.890E-05    0.947E-05
DAV:  12    -0.137277654468E+04   -0.24540E-06   -0.10088E-08  3872   0.911E-05    0.545E-05
DAV:  13    -0.137277654479E+04   -0.11508E-06   -0.28807E-09  3136   0.779E-05    0.390E-05
DAV:  14    -0.137277654489E+04   -0.10330E-06   -0.40888E-09  3264   0.792E-05    0.258E-05
DAV:  15    -0.137277654496E+04   -0.62093E-07   -0.23615E-09  3104   0.683E-05    0.225E-05
DAV:  16    -0.137277654498E+04   -0.27489E-07   -0.76488E-10  3072   0.410E-05    0.142E-05
DAV:  17    -0.137277654501E+04   -0.23298E-07   -0.36062E-10  3072   0.346E-05    0.165E-05
DAV:  18    -0.137277654501E+04   -0.75088E-08    0.34350E-10  2944   0.214E-05
  24 F= -.13920484E+04 E0= -.13920484E+04  d E =0.128852E-02  mag=     0.0000
       N       E                     dE             d eps       ncg     rms          rms(c)
DAV:   1    -0.137277824264E+04   -0.16976E-02   -0.78624E-02  4512   0.174E-01    0.111E-01
DAV:   2    -0.137277815413E+04    0.88511E-04   -0.95779E-04  4640   0.208E-02    0.653E-02
DAV:   3    -0.137277812802E+04    0.26108E-04   -0.57704E-04  4640   0.155E-02    0.233E-02
DAV:   4    -0.137277811684E+04    0.11183E-04   -0.51452E-05  4448   0.486E-03    0.147E-02
DAV:   5    -0.137277811520E+04    0.16448E-05   -0.22865E-05  4608   0.311E-03    0.267E-03
DAV:   6    -0.137277811542E+04   -0.21825E-06   -0.17242E-06  4864   0.949E-04    0.116E-03
DAV:   7    -0.137277811578E+04   -0.36150E-06   -0.24913E-07  4640   0.335E-04    0.905E-04
DAV:   8    -0.137277811635E+04   -0.57304E-06   -0.77517E-08  4064   0.225E-04    0.267E-04
DAV:   9    -0.137277811684E+04   -0.48563E-06   -0.30343E-08  3840   0.131E-04    0.279E-04
DAV:  10    -0.137277811743E+04   -0.59203E-06   -0.24148E-08  3904   0.133E-04    0.118E-04
DAV:  11    -0.137277811782E+04   -0.38953E-06   -0.12116E-08  3776   0.105E-04    0.872E-05
DAV:  12    -0.137277811816E+04   -0.34766E-06   -0.13034E-08  3936   0.105E-04    0.604E-05
DAV:  13    -0.137277811832E+04   -0.15521E-06   -0.48924E-09  3232   0.108E-04    0.462E-05
DAV:  14    -0.137277811845E+04   -0.12768E-06   -0.51670E-09  3232   0.104E-04    0.353E-05
DAV:  15    -0.137277811850E+04   -0.50830E-07   -0.25391E-09  3072   0.837E-05    0.272E-05
DAV:  16    -0.137277811853E+04   -0.34575E-07   -0.11712E-09  3072   0.509E-05    0.250E-05
DAV:  17    -0.137277811855E+04   -0.15891E-07   -0.30339E-10  3072   0.343E-05    0.202E-05
DAV:  18    -0.137277811855E+04   -0.37835E-08    0.36227E-10  2944   0.199E-05
  25 F= -.13920497E+04 E0= -.13920497E+04  d E =-.131182E-02  mag=     0.0000
       N       E                     dE             d eps       ncg     rms          rms(c)
DAV:   1    -0.137277776179E+04    0.35676E-03   -0.72429E-02  4960   0.196E-01    0.813E-02
DAV:   2    -0.137277778181E+04   -0.20020E-04   -0.55288E-04  5088   0.162E-02    0.491E-02
DAV:   3    -0.137277778188E+04   -0.74200E-07   -0.83112E-05  5824   0.690E-03    0.813E-03
DAV:   4    -0.137277778116E+04    0.72541E-06   -0.80209E-06  5440   0.217E-03    0.358E-03
DAV:   5    -0.137277778152E+04   -0.36652E-06   -0.31138E-06  4992   0.124E-03    0.113E-03
DAV:   6    -0.137277778171E+04   -0.18404E-06   -0.30311E-07  4768   0.448E-04    0.586E-04
DAV:   7    -0.137277778213E+04   -0.42422E-06   -0.48292E-08  3936   0.196E-04    0.235E-04
DAV:   8    -0.137277778247E+04   -0.34241E-06   -0.17696E-08  3808   0.118E-04    0.145E-04
DAV:   9    -0.137277778286E+04   -0.38477E-06   -0.16571E-08  3904   0.118E-04    0.810E-05
DAV:  10    -0.137277778306E+04   -0.19815E-06   -0.57142E-09  3424   0.907E-05    0.548E-05
DAV:  11    -0.137277778325E+04   -0.19440E-06   -0.79287E-09  3680   0.101E-04    0.451E-05
DAV:  12    -0.137277778333E+04   -0.83019E-07   -0.38365E-09  3232   0.116E-04    0.305E-05
DAV:  13    -0.137277778343E+04   -0.94456E-07   -0.38932E-09  3200   0.979E-05    0.238E-05
DAV:  14    -0.137277778348E+04   -0.55326E-07   -0.14781E-09  3072   0.565E-05    0.227E-05
DAV:  15    -0.137277778351E+04   -0.27765E-07   -0.39413E-10  3072   0.376E-05    0.121E-05
DAV:  16    -0.137277778353E+04   -0.19660E-07   -0.77641E-12  3072   0.292E-05    0.193E-05
DAV:  17    -0.137277778353E+04   -0.48749E-08    0.45798E-10  2944   0.169E-05
  26 F= -.13920495E+04 E0= -.13920495E+04  d E =0.162997E-03  mag=    -0.0000
       N       E                     dE             d eps       ncg     rms          rms(c)
DAV:   1    -0.137277790762E+04   -0.12409E-03   -0.74811E-02  4992   0.200E-01    0.934E-02
DAV:   2    -0.137277787960E+04    0.28025E-04   -0.66343E-04  5184   0.192E-02    0.545E-02
DAV:   3    -0.137277787005E+04    0.95462E-05   -0.26032E-04  5600   0.114E-02    0.150E-02
DAV:   4    -0.137277786569E+04    0.43630E-05   -0.26064E-05  5472   0.365E-03    0.883E-03
DAV:   5    -0.137277786516E+04    0.52516E-06   -0.12007E-05  4992   0.230E-03    0.167E-03
DAV:   6    -0.137277786524E+04   -0.77256E-07   -0.62338E-07  4928   0.717E-04    0.943E-04
DAV:   7    -0.137277786529E+04   -0.44936E-07   -0.81272E-08  4288   0.268E-04    0.459E-04
DAV:   8    -0.137277786539E+04   -0.10218E-06   -0.23901E-08  4096   0.204E-04    0.204E-04
DAV:   9    -0.137277786548E+04   -0.91808E-07   -0.11862E-08  3968   0.154E-04    0.117E-04
DAV:  10    -0.137277786559E+04   -0.11123E-06   -0.51865E-09  3360   0.136E-04    0.711E-05
DAV:  11    -0.137277786566E+04   -0.71755E-07   -0.63810E-09  3648   0.109E-04    0.636E-05
DAV:  12    -0.137277786573E+04   -0.63257E-07   -0.34870E-09  3136   0.103E-04    0.322E-05
DAV:  13    -0.137277786577E+04   -0.40673E-07   -0.41197E-09  3104   0.973E-05    0.372E-05
DAV:  14    -0.137277786578E+04   -0.14377E-07   -0.17525E-09  3072   0.693E-05    0.276E-05
DAV:  15    -0.137277786580E+04   -0.16415E-07   -0.91454E-10  3072   0.473E-05    0.188E-05
DAV:  16    -0.137277786581E+04   -0.86438E-08   -0.45838E-13  3072   0.299E-05
  27 F= -.13920497E+04 E0= -.13920497E+04  d E =-.148967E-03  mag=    -0.0000
       N       E                     dE             d eps       ncg     rms          rms(c)
DAV:   1    -0.137277712933E+04    0.73647E-03   -0.75327E-02  4992   0.201E-01    0.958E-02
DAV:   2    -0.137277709729E+04    0.32033E-04   -0.67495E-04  5152   0.193E-02    0.567E-02
DAV:   3    -0.137277708940E+04    0.78932E-05   -0.29688E-04  5376   0.119E-02    0.159E-02
DAV:   4    -0.137277708414E+04    0.52656E-05   -0.30832E-05  5024   0.390E-03    0.961E-03
DAV:   5    -0.137277708354E+04    0.59065E-06   -0.12856E-05  4928   0.235E-03    0.175E-03
DAV:   6    -0.137277708361E+04   -0.60740E-07   -0.66672E-07  4704   0.671E-04    0.910E-04
DAV:   7    -0.137277708365E+04   -0.45446E-07   -0.11409E-07  4512   0.257E-04    0.423E-04
DAV:   8    -0.137277708373E+04   -0.80458E-07   -0.21915E-08  3808   0.137E-04    0.207E-04
DAV:   9    -0.137277708380E+04   -0.72032E-07   -0.73522E-09  3600   0.103E-04    0.102E-04
DAV:  10    -0.137277708387E+04   -0.70359E-07   -0.49671E-09  3264   0.935E-05    0.713E-05
DAV:  11    -0.137277708392E+04   -0.48327E-07   -0.31613E-09  3072   0.836E-05    0.526E-05
DAV:  12    -0.137277708397E+04   -0.43365E-07   -0.35042E-09  3136   0.818E-05    0.249E-05
DAV:  13    -0.137277708399E+04   -0.25393E-07   -0.20574E-09  3008   0.643E-05    0.257E-05
DAV:  14    -0.137277708401E+04   -0.19281E-07   -0.71477E-10  3072   0.379E-05    0.167E-05
DAV:  15    -0.137277708403E+04   -0.16487E-07   -0.40205E-10  3040   0.319E-05    0.112E-05
DAV:  16    -0.137277708403E+04   -0.31287E-08    0.23638E-10  2752   0.221E-05
  28 F= -.13920486E+04 E0= -.13920486E+04  d E =0.108077E-02  mag=    -0.0000
       N       E                     dE             d eps       ncg     rms          rms(c)
DAV:   1    -0.137277746010E+04   -0.37607E-03   -0.80234E-02  5056   0.204E-01    0.119E-01
DAV:   2    -0.137277737079E+04    0.89308E-04   -0.13968E-03  5312   0.286E-02    0.717E-02
DAV:   3    -0.137277733375E+04    0.37047E-04   -0.77341E-04  5472   0.188E-02    0.269E-02
DAV:   4    -0.137277731906E+04    0.14691E-04   -0.92261E-05  5200   0.631E-03    0.173E-02
DAV:   5    -0.137277731704E+04    0.20187E-05   -0.26393E-05  5120   0.330E-03    0.378E-03
DAV:   6    -0.137277731687E+04    0.16924E-06   -0.25099E-06  4704   0.112E-03    0.124E-03
DAV:   7    -0.137277731691E+04   -0.46493E-07   -0.37866E-07  5088   0.427E-04    0.954E-04
DAV:   8    -0.137277731698E+04   -0.64581E-07   -0.45982E-08  3936   0.190E-04    0.312E-04
DAV:   9    -0.137277731704E+04   -0.66590E-07   -0.23904E-08  4000   0.140E-04    0.177E-04
DAV:  10    -0.137277731713E+04   -0.81403E-07   -0.42848E-09  3264   0.870E-05    0.918E-05
DAV:  11    -0.137277731719E+04   -0.66299E-07   -0.40367E-09  3264   0.730E-05    0.529E-05
DAV:  12    -0.137277731726E+04   -0.64625E-07   -0.34106E-09  3120   0.810E-05    0.326E-05
DAV:  13    -0.137277731730E+04   -0.44689E-07   -0.34905E-09  3088   0.874E-05    0.316E-05
DAV:  14    -0.137277731732E+04   -0.20533E-07   -0.22385E-09  3072   0.847E-05    0.220E-05
DAV:  15    -0.137277731735E+04   -0.25291E-07   -0.16607E-09  3072   0.580E-05    0.174E-05
DAV:  16    -0.137277731735E+04   -0.56607E-08   -0.12890E-10  2944   0.308E-05
  29 F= -.13920492E+04 E0= -.13920492E+04  d E =-.631499E-03  mag=     0.0000
       N       E                     dE             d eps       ncg     rms          rms(c)
DAV:   1    -0.137277794160E+04   -0.62425E-03   -0.76807E-02  5056   0.168E-01    0.106E-01
DAV:   2    -0.137277786461E+04    0.76992E-04   -0.80564E-04  5312   0.191E-02    0.605E-02
DAV:   3    -0.137277784470E+04    0.19908E-04   -0.35895E-04  5536   0.111E-02    0.187E-02
DAV:   4    -0.137277783878E+04    0.59161E-05   -0.33691E-05  4928   0.361E-03    0.117E-02
DAV:   5    -0.137277783815E+04    0.63195E-06   -0.11482E-05  5408   0.205E-03    0.225E-03
DAV:   6    -0.137277783815E+04   -0.13388E-08   -0.96349E-07  4992   0.698E-04    0.973E-04
DAV:   7    -0.137277783823E+04   -0.83615E-07   -0.15377E-07  4608   0.274E-04    0.630E-04
DAV:   8    -0.137277783832E+04   -0.87515E-07   -0.22450E-08  3840   0.153E-04    0.218E-04
DAV:   9    -0.137277783840E+04   -0.74841E-07   -0.99946E-09  3616   0.122E-04    0.115E-04
DAV:  10    -0.137277783847E+04   -0.69529E-07   -0.35470E-09  3072   0.973E-05    0.723E-05
DAV:  11    -0.137277783853E+04   -0.59517E-07   -0.44447E-09  3168   0.106E-04    0.464E-05
DAV:  12    -0.137277783857E+04   -0.48341E-07   -0.47255E-09  3104   0.112E-04    0.376E-05
DAV:  13    -0.137277783860E+04   -0.21973E-07   -0.28760E-09  3072   0.858E-05    0.327E-05
DAV:  14    -0.137277783862E+04   -0.20969E-07   -0.16316E-09  3072   0.584E-05    0.242E-05
DAV:  15    -0.137277783863E+04   -0.10274E-07   -0.56978E-10  3072   0.367E-05    0.189E-05
DAV:  16    -0.137277783863E+04   -0.50059E-08   -0.99244E-12  2944   0.280E-05
  30 F= -.13920496E+04 E0= -.13920496E+04  d E =-.398994E-03  mag=     0.0000
       N       E                     dE             d eps       ncg     rms          rms(c)
DAV:   1    -0.137277762553E+04    0.21310E-03   -0.78586E-02  5184   0.170E-01    0.115E-01
DAV:   2    -0.137277751967E+04    0.10585E-03   -0.93478E-04  5280   0.197E-02    0.642E-02
DAV:   3    -0.137277749435E+04    0.25324E-04   -0.42477E-04  5504   0.118E-02    0.209E-02
DAV:   4    -0.137277748726E+04    0.70869E-05   -0.40954E-05  5104   0.383E-03    0.128E-02
DAV:   5    -0.137277748676E+04    0.50721E-06   -0.12498E-05  5216   0.202E-03    0.232E-03
DAV:   6    -0.137277748673E+04    0.23574E-07   -0.10589E-06  4528   0.650E-04    0.983E-04
DAV:   7    -0.137277748679E+04   -0.55457E-07   -0.17254E-07  4592   0.278E-04    0.628E-04
DAV:   8    -0.137277748685E+04   -0.62471E-07   -0.24122E-08  3840   0.125E-04    0.199E-04
DAV:   9    -0.137277748692E+04   -0.67594E-07   -0.90536E-09  3584   0.853E-05    0.120E-04
DAV:  10    -0.137277748700E+04   -0.80865E-07   -0.38431E-09  3296   0.752E-05    0.590E-05
DAV:  11    -0.137277748707E+04   -0.67026E-07   -0.41896E-09  3328   0.871E-05    0.396E-05
DAV:  12    -0.137277748711E+04   -0.48851E-07   -0.35246E-09  3072   0.928E-05    0.295E-05
DAV:  13    -0.137277748715E+04   -0.35900E-07   -0.28549E-09  3072   0.799E-05    0.227E-05
DAV:  14    -0.137277748717E+04   -0.22250E-07   -0.14037E-09  3072   0.515E-05    0.132E-05
DAV:  15    -0.137277748719E+04   -0.18539E-07   -0.64436E-10  3072   0.326E-05    0.117E-05
DAV:  16    -0.137277748720E+04   -0.54133E-08    0.68287E-11  3072   0.235E-05
  31 F= -.13920490E+04 E0= -.13920490E+04  d E =0.647587E-03  mag=    -0.0000
       N       E                     dE             d eps       ncg     rms          rms(c)
DAV:   1    -0.137277782950E+04   -0.34231E-03   -0.76942E-02  5184   0.199E-01    0.103E-01
DAV:   2    -0.137277778970E+04    0.39806E-04   -0.96697E-04  5216   0.219E-02    0.618E-02
DAV:   3    -0.137277777056E+04    0.19141E-04   -0.44116E-04  5408   0.135E-02    0.203E-02
DAV:   4    -0.137277776278E+04    0.77736E-05   -0.47001E-05  4928   0.436E-03    0.135E-02
DAV:   5    -0.137277776101E+04    0.17741E-05   -0.18365E-05  4720   0.261E-03    0.279E-03
DAV:   6    -0.137277776123E+04   -0.21899E-06   -0.18471E-06  4768   0.875E-04    0.120E-03
DAV:   7    -0.137277776156E+04   -0.32700E-06   -0.28505E-07  4752   0.352E-04    0.913E-04
DAV:   8    -0.137277776200E+04   -0.44200E-06   -0.95000E-08  4192   0.220E-04    0.244E-04
DAV:   9    -0.137277776231E+04   -0.31458E-06   -0.22387E-08  3856   0.114E-04    0.235E-04
DAV:  10    -0.137277776265E+04   -0.34222E-06   -0.13813E-08  3808   0.957E-05    0.963E-05
DAV:  11    -0.137277776291E+04   -0.25364E-06   -0.80834E-09  3424   0.877E-05    0.699E-05
DAV:  12    -0.137277776312E+04   -0.20767E-06   -0.10913E-08  3824   0.109E-04    0.439E-05
DAV:  13    -0.137277776322E+04   -0.99593E-07   -0.44152E-09  3168   0.115E-04    0.302E-05
DAV:  14    -0.137277776329E+04   -0.76470E-07   -0.45004E-09  3168   0.104E-04    0.213E-05
DAV:  15    -0.137277776332E+04   -0.30588E-07   -0.15903E-09  3072   0.726E-05    0.173E-05
DAV:  16    -0.137277776335E+04   -0.27998E-07   -0.66837E-10  3072   0.412E-05    0.118E-05
DAV:  17    -0.137277776336E+04   -0.10448E-07   -0.76547E-11  3072   0.304E-05    0.114E-05
DAV:  18    -0.137277776336E+04   -0.35361E-08    0.43287E-10  2944   0.181E-05
  32 F= -.13920495E+04 E0= -.13920495E+04  d E =-.496098E-03  mag=    -0.0000
       N       E                     dE             d eps       ncg     rms          rms(c)
DAV:   1    -0.137277777203E+04   -0.86684E-05   -0.76027E-02  4384   0.183E-01    0.965E-02
DAV:   2    -0.137277773615E+04    0.35881E-04   -0.74288E-04  4512   0.181E-02    0.562E-02
DAV:   3    -0.137277772567E+04    0.10479E-04   -0.29457E-04  5152   0.111E-02    0.159E-02
DAV:   4    -0.137277772083E+04    0.48355E-05   -0.27624E-05  4544   0.369E-03    0.102E-02
DAV:   5    -0.137277772003E+04    0.80676E-06   -0.12790E-05  4544   0.246E-03    0.191E-03
DAV:   6    -0.137277772032E+04   -0.29798E-06   -0.93934E-07  4736   0.785E-04    0.993E-04
DAV:   7    -0.137277772069E+04   -0.36205E-06   -0.13120E-07  4624   0.277E-04    0.646E-04
DAV:   8    -0.137277772116E+04   -0.47268E-06   -0.53936E-08  4192   0.169E-04    0.210E-04
DAV:   9    -0.137277772150E+04   -0.34375E-06   -0.16029E-08  3840   0.111E-04    0.160E-04
DAV:  10    -0.137277772178E+04   -0.28056E-06   -0.75475E-09  3552   0.735E-05    0.103E-04
DAV:  11    -0.137277772210E+04   -0.31627E-06   -0.11114E-08  3744   0.795E-05    0.578E-05
DAV:  12    -0.137277772232E+04   -0.21550E-06   -0.76115E-09  3488   0.787E-05    0.451E-05
DAV:  13    -0.137277772245E+04   -0.13197E-06   -0.46036E-09  3264   0.775E-05    0.278E-05
DAV:  14    -0.137277772252E+04   -0.77620E-07   -0.27134E-09  3072   0.682E-05    0.188E-05
DAV:  15    -0.137277772257E+04   -0.44267E-07   -0.15244E-09  3008   0.500E-05    0.131E-05
DAV:  16    -0.137277772260E+04   -0.26688E-07   -0.50954E-10  3008   0.340E-05    0.827E-06
DAV:  17    -0.137277772261E+04   -0.12165E-07    0.10622E-10  3008   0.240E-05    0.697E-06
DAV:  18    -0.137277772261E+04   -0.46421E-08    0.54274E-10  3008   0.154E-05
  33 F= -.13920495E+04 E0= -.13920495E+04  d E =-.743812E-04  mag=    -0.0000
       N       E                     dE             d eps       ncg     rms          rms(c)
DAV:   1    -0.137277697450E+04    0.74810E-03   -0.75445E-02  4384   0.182E-01    0.934E-02
DAV:   2    -0.137277693967E+04    0.34837E-04   -0.66926E-04  4384   0.172E-02    0.549E-02
DAV:   3    -0.137277692823E+04    0.11434E-04   -0.26722E-04  5152   0.107E-02    0.151E-02
DAV:   4    -0.137277692354E+04    0.46890E-05   -0.29327E-05  4960   0.364E-03    0.913E-03
DAV:   5    -0.137277692331E+04    0.23162E-06   -0.10762E-05  4672   0.224E-03    0.174E-03
DAV:   6    -0.137277692367E+04   -0.35306E-06   -0.64785E-07  4704   0.688E-04    0.896E-04
DAV:   7    -0.137277692411E+04   -0.44603E-06   -0.95539E-08  4608   0.264E-04    0.478E-04
DAV:   8    -0.137277692473E+04   -0.62108E-06   -0.43814E-08  4192   0.174E-04    0.242E-04
DAV:   9    -0.137277692533E+04   -0.59817E-06   -0.32641E-08  4160   0.145E-04    0.154E-04
DAV:  10    -0.137277692577E+04   -0.44164E-06   -0.17585E-08  3936   0.935E-05    0.115E-04
DAV:  11    -0.137277692614E+04   -0.37104E-06   -0.16920E-08  4000   0.882E-05    0.713E-05
DAV:  12    -0.137277692634E+04   -0.19198E-06   -0.55164E-09  3456   0.710E-05    0.455E-05
DAV:  13    -0.137277692650E+04   -0.16269E-06   -0.64536E-09  3456   0.690E-05    0.351E-05
DAV:  14    -0.137277692656E+04   -0.58368E-07   -0.15120E-09  3072   0.544E-05    0.219E-05
DAV:  15    -0.137277692660E+04   -0.46392E-07   -0.11016E-09  3072   0.411E-05    0.125E-05
DAV:  16    -0.137277692663E+04   -0.29380E-07   -0.39411E-10  3072   0.361E-05    0.119E-05
DAV:  17    -0.137277692665E+04   -0.12224E-07    0.13162E-10  3072   0.263E-05    0.863E-06
DAV:  18    -0.137277692665E+04   -0.66066E-08    0.46119E-10  3072   0.184E-05
  34 F= -.13920488E+04 E0= -.13920488E+04  d E =0.732673E-03  mag=     0.0000
       N       E                     dE             d eps       ncg     rms          rms(c)
DAV:   1    -0.137277785054E+04   -0.92390E-03   -0.78746E-02  4448   0.193E-01    0.113E-01
DAV:   2    -0.137277779521E+04    0.55329E-04   -0.13417E-03  5152   0.259E-02    0.666E-02
DAV:   3    -0.137277776785E+04    0.27366E-04   -0.59891E-04  5344   0.161E-02    0.231E-02
DAV:   4    -0.137277775809E+04    0.97562E-05   -0.57666E-05  5088   0.509E-03    0.145E-02
DAV:   5    -0.137277775614E+04    0.19531E-05   -0.21774E-05  5120   0.314E-03    0.282E-03
DAV:   6    -0.137277775645E+04   -0.30857E-06   -0.18451E-06  5088   0.101E-03    0.131E-03
DAV:   7    -0.137277775671E+04   -0.26653E-06   -0.24157E-07  4672   0.408E-04    0.884E-04
DAV:   8    -0.137277775717E+04   -0.45875E-06   -0.75220E-08  4224   0.233E-04    0.326E-04
DAV:   9    -0.137277775754E+04   -0.37065E-06   -0.27333E-08  3968   0.134E-04    0.224E-04
DAV:  10    -0.137277775795E+04   -0.41157E-06   -0.14100E-08  3808   0.102E-04    0.131E-04
DAV:  11    -0.137277775831E+04   -0.35828E-06   -0.14084E-08  3904   0.937E-05    0.878E-05
DAV:  12    -0.137277775860E+04   -0.29169E-06   -0.10592E-08  3648   0.852E-05    0.569E-05
DAV:  13    -0.137277775878E+04   -0.18122E-06   -0.67844E-09  3456   0.820E-05    0.383E-05
DAV:  14    -0.137277775888E+04   -0.96101E-07   -0.32223E-09  3104   0.796E-05    0.255E-05
DAV:  15    -0.137277775895E+04   -0.66197E-07   -0.32946E-09  3104   0.710E-05    0.165E-05
DAV:  16    -0.137277775897E+04   -0.26354E-07   -0.13321E-09  3072   0.479E-05    0.112E-05
DAV:  17    -0.137277775899E+04   -0.12224E-07   -0.33831E-10  3072   0.286E-05    0.778E-06
DAV:  18    -0.137277775899E+04   -0.76980E-08    0.16185E-10  3072   0.218E-05
  35 F= -.13920495E+04 E0= -.13920495E+04  d E =-.718603E-03  mag=     0.0000
       N       E                     dE             d eps       ncg     rms          rms(c)
DAV:   1    -0.137277777794E+04   -0.18959E-04   -0.75825E-02  4512   0.169E-01    0.102E-01
DAV:   2    -0.137277770944E+04    0.68506E-04   -0.72649E-04  4864   0.176E-02    0.584E-02
DAV:   3    -0.137277769569E+04    0.13752E-04   -0.34764E-04  5344   0.106E-02    0.180E-02
DAV:   4    -0.137277768953E+04    0.61608E-05   -0.31629E-05  4832   0.349E-03    0.119E-02
DAV:   5    -0.137277768890E+04    0.62700E-06   -0.11073E-05  5040   0.198E-03    0.268E-03
DAV:   6    -0.137277768910E+04   -0.20156E-06   -0.14442E-06  4720   0.787E-04    0.104E-03
DAV:   7    -0.137277768954E+04   -0.43742E-06   -0.18128E-07  4704   0.305E-04    0.797E-04
DAV:   8    -0.137277768998E+04   -0.44500E-06   -0.39370E-08  3904   0.152E-04    0.259E-04
DAV:   9    -0.137277769034E+04   -0.35728E-06   -0.22000E-08  3904   0.114E-04    0.177E-04
DAV:  10    -0.137277769069E+04   -0.35026E-06   -0.10631E-08  3680   0.849E-05    0.976E-05
DAV:  11    -0.137277769098E+04   -0.28596E-06   -0.11156E-08  3776   0.951E-05    0.579E-05
DAV:  12    -0.137277769114E+04   -0.16524E-06   -0.55289E-09  3392   0.867E-05    0.500E-05
DAV:  13    -0.137277769126E+04   -0.12365E-06   -0.40988E-09  3232   0.683E-05    0.348E-05
DAV:  14    -0.137277769135E+04   -0.85900E-07   -0.32329E-09  3104   0.592E-05    0.220E-05
DAV:  15    -0.137277769138E+04   -0.34081E-07   -0.14196E-09  3072   0.525E-05    0.243E-05
DAV:  16    -0.137277769140E+04   -0.19063E-07   -0.53619E-10  3072   0.381E-05    0.184E-05
DAV:  17    -0.137277769141E+04   -0.10114E-07    0.21698E-10  3072   0.228E-05    0.122E-05
DAV:  18    -0.137277769142E+04   -0.43947E-08    0.53841E-10  3008   0.163E-05
  36 F= -.13920495E+04 E0= -.13920495E+04  d E =0.836417E-07  mag=    -0.0000
       N       E                     dE             d eps       ncg     rms          rms(c)
DAV:   1    -0.137277724623E+04    0.44518E-03   -0.71559E-02  4480   0.166E-01    0.825E-02
DAV:   2    -0.137277723293E+04    0.13303E-04   -0.46839E-04  5408   0.139E-02    0.483E-02
DAV:   3    -0.137277723240E+04    0.53196E-06   -0.14236E-04  5760   0.752E-03    0.109E-02
DAV:   4    -0.137277723027E+04    0.21304E-05   -0.16140E-05  4992   0.260E-03    0.663E-03
DAV:   5    -0.137277723022E+04    0.50568E-07   -0.69485E-06  4960   0.158E-03    0.141E-03
DAV:   6    -0.137277723047E+04   -0.25412E-06   -0.59266E-07  4544   0.527E-04    0.762E-04
DAV:   7    -0.137277723083E+04   -0.35847E-06   -0.68628E-08  4032   0.201E-04    0.355E-04
DAV:   8    -0.137277723127E+04   -0.43870E-06   -0.27943E-08  3968   0.123E-04    0.186E-04
DAV:   9    -0.137277723165E+04   -0.38130E-06   -0.13002E-08  3712   0.106E-04    0.110E-04
DAV:  10    -0.137277723203E+04   -0.37855E-06   -0.15392E-08  3904   0.110E-04    0.795E-05
DAV:  11    -0.137277723227E+04   -0.24703E-06   -0.95860E-09  3552   0.112E-04    0.524E-05
DAV:  12    -0.137277723244E+04   -0.16957E-06   -0.87947E-09  3616   0.126E-04    0.350E-05
DAV:  13    -0.137277723253E+04   -0.88490E-07   -0.55105E-09  3200   0.117E-04    0.252E-05
DAV:  14    -0.137277723259E+04   -0.53566E-07   -0.29373E-09  3072   0.713E-05    0.149E-05
DAV:  15    -0.137277723261E+04   -0.25640E-07   -0.94508E-10  3072   0.424E-05    0.961E-06
DAV:  16    -0.137277723262E+04   -0.13097E-07   -0.23387E-10  3072   0.295E-05    0.719E-06
DAV:  17    -0.137277723263E+04   -0.66502E-08    0.25526E-10  3072   0.196E-05
  37 F= -.13920490E+04 E0= -.13920490E+04  d E =0.542738E-03  mag=    -0.0000
       N       E                     dE             d eps       ncg     rms          rms(c)
DAV:   1    -0.137277723697E+04   -0.43425E-05   -0.79190E-02  5088   0.171E-01    0.123E-01
DAV:   2    -0.137277709254E+04    0.14443E-03   -0.13895E-03  5376   0.244E-02    0.700E-02
DAV:   3    -0.137277706242E+04    0.30111E-04   -0.52101E-04  5504   0.135E-02    0.238E-02
DAV:   4    -0.137277705441E+04    0.80188E-05   -0.68229E-05  5312   0.475E-03    0.128E-02
DAV:   5    -0.137277705481E+04   -0.40467E-06   -0.98135E-06  5696   0.203E-03    0.251E-03
DAV:   6    -0.137277705494E+04   -0.13108E-06   -0.11840E-06  4768   0.715E-04    0.101E-03
DAV:   7    -0.137277705524E+04   -0.30010E-06   -0.14955E-07  4512   0.268E-04    0.510E-04
DAV:   8    -0.137277705556E+04   -0.31754E-06   -0.26350E-08  3840   0.122E-04    0.232E-04
DAV:   9    -0.137277705589E+04   -0.32809E-06   -0.17359E-08  3872   0.102E-04    0.129E-04
DAV:  10    -0.137277705621E+04   -0.32099E-06   -0.12605E-08  3680   0.895E-05    0.911E-05
DAV:  11    -0.137277705646E+04   -0.24826E-06   -0.93363E-09  3632   0.946E-05    0.535E-05
DAV:  12    -0.137277705660E+04   -0.13948E-06   -0.59998E-09  3424   0.108E-04    0.418E-05
DAV:  13    -0.137277705671E+04   -0.11448E-06   -0.56611E-09  3424   0.100E-04    0.302E-05
DAV:  14    -0.137277705679E+04   -0.79061E-07   -0.29240E-09  3072   0.700E-05    0.148E-05
DAV:  15    -0.137277705682E+04   -0.35128E-07   -0.13406E-09  3072   0.514E-05    0.114E-05
DAV:  16    -0.137277705684E+04   -0.20227E-07   -0.52729E-10  3072   0.375E-05    0.957E-06
DAV:  17    -0.137277705685E+04   -0.72614E-08    0.13950E-10  3072   0.202E-05
  38 F= -.13920490E+04 E0= -.13920490E+04  d E =0.294925E-04  mag=    -0.0000
       N       E                     dE             d eps       ncg     rms          rms(c)
DAV:   1    -0.137277790506E+04   -0.84821E-03   -0.79222E-02  5120   0.132E-01    0.128E-01
DAV:   2    -0.137277772436E+04    0.18070E-03   -0.11201E-03  5600   0.204E-02    0.691E-02
DAV:   3    -0.137277769436E+04    0.29996E-04   -0.26710E-04  5632   0.993E-03    0.237E-02
DAV:   4    -0.137277769218E+04    0.21833E-05   -0.27210E-05  6304   0.381E-03    0.933E-03
DAV:   5    -0.137277769282E+04   -0.64130E-06   -0.38793E-06  5920   0.152E-03    0.306E-03
DAV:   6    -0.137277769296E+04   -0.13440E-06   -0.11720E-06  5248   0.774E-04    0.133E-03
DAV:   7    -0.137277769315E+04   -0.19028E-06   -0.16596E-07  4608   0.298E-04    0.734E-04
DAV:   8    -0.137277769349E+04   -0.34821E-06   -0.81606E-08  4064   0.196E-04    0.330E-04
DAV:   9    -0.137277769370E+04   -0.21048E-06   -0.16020E-08  3648   0.118E-04    0.168E-04
DAV:  10    -0.137277769388E+04   -0.17688E-06   -0.83390E-09  3808   0.765E-05    0.131E-04
DAV:  11    -0.137277769412E+04   -0.23960E-06   -0.59695E-09  3488   0.605E-05    0.591E-05
DAV:  12    -0.137277769429E+04   -0.17139E-06   -0.62294E-09  3616   0.613E-05    0.461E-05
DAV:  13    -0.137277769441E+04   -0.11460E-06   -0.39474E-09  3328   0.729E-05    0.309E-05
DAV:  14    -0.137277769446E+04   -0.49797E-07   -0.21877E-09  3072   0.642E-05    0.215E-05
DAV:  15    -0.137277769448E+04   -0.20547E-07   -0.76140E-10  3072   0.450E-05    0.146E-05
DAV:  16    -0.137277769449E+04   -0.13271E-07   -0.44228E-10  3072   0.361E-05    0.149E-05
DAV:  17    -0.137277769449E+04   -0.17317E-08    0.41465E-10  2976   0.230E-05
  39 F= -.13920495E+04 E0= -.13920495E+04  d E =-.502928E-03  mag=     0.0000
       N       E                     dE             d eps       ncg     rms          rms(c)
DAV:   1    -0.137277788579E+04   -0.19130E-03   -0.75599E-02  5120   0.128E-01    0.109E-01
DAV:   2    -0.137277778421E+04    0.10158E-03   -0.72184E-04  5408   0.158E-02    0.602E-02
DAV:   3    -0.137277776806E+04    0.16144E-04   -0.16886E-04  5632   0.767E-03    0.182E-02
DAV:   4    -0.137277776764E+04    0.42348E-06   -0.16093E-05  6176   0.285E-03    0.696E-03
DAV:   5    -0.137277776793E+04   -0.29385E-06   -0.24052E-06  5664   0.125E-03    0.233E-03
DAV:   6    -0.137277776804E+04   -0.10231E-06   -0.59964E-07  4832   0.552E-04    0.100E-03
DAV:   7    -0.137277776815E+04   -0.11688E-06   -0.89550E-08  4416   0.237E-04    0.534E-04
DAV:   8    -0.137277776839E+04   -0.23826E-06   -0.52821E-08  4256   0.184E-04    0.243E-04
DAV:   9    -0.137277776851E+04   -0.11992E-06   -0.10053E-08  3584   0.869E-05    0.140E-04
DAV:  10    -0.137277776861E+04   -0.10064E-06   -0.37333E-09  3232   0.553E-05    0.101E-04
DAV:  11    -0.137277776878E+04   -0.17071E-06   -0.70892E-09  3616   0.723E-05    0.498E-05
DAV:  12    -0.137277776886E+04   -0.76310E-07   -0.31083E-09  3168   0.715E-05    0.418E-05
DAV:  13    -0.137277776892E+04   -0.58513E-07   -0.35113E-09  3232   0.810E-05    0.279E-05
DAV:  14    -0.137277776895E+04   -0.30865E-07   -0.23400E-09  3072   0.710E-05    0.204E-05
DAV:  15    -0.137277776896E+04   -0.12587E-07   -0.63957E-10  3072   0.405E-05    0.116E-05
DAV:  16    -0.137277776897E+04   -0.11263E-07   -0.12575E-10  3072   0.306E-05    0.103E-05
DAV:  17    -0.137277776897E+04   -0.15862E-08    0.38828E-10  3072   0.195E-05
  40 F= -.13920494E+04 E0= -.13920494E+04  d E =0.735069E-04  mag=    -0.0000
       N       E                     dE             d eps       ncg     rms          rms(c)
DAV:   1    -0.137277705918E+04    0.70980E-03   -0.75763E-02  5152   0.138E-01    0.112E-01
DAV:   2    -0.137277698624E+04    0.72932E-04   -0.99010E-04  5312   0.188E-02    0.661E-02
DAV:   3    -0.137277695497E+04    0.31273E-04   -0.49201E-04  5440   0.139E-02    0.183E-02
DAV:   4    -0.137277695037E+04    0.46059E-05   -0.46636E-05  5312   0.450E-03    0.136E-02
DAV:   5    -0.137277694934E+04    0.10249E-05   -0.14365E-05  5376   0.261E-03    0.379E-03
DAV:   6    -0.137277694929E+04    0.50510E-07   -0.22682E-06  5600   0.109E-03    0.123E-03
DAV:   7    -0.137277694949E+04   -0.19555E-06   -0.30023E-07  4736   0.364E-04    0.900E-04
DAV:   8    -0.137277694972E+04   -0.23138E-06   -0.45606E-08  4000   0.191E-04    0.310E-04
DAV:   9    -0.137277694991E+04   -0.19436E-06   -0.28186E-08  4160   0.151E-04    0.200E-04
DAV:  10    -0.137277695008E+04   -0.16748E-06   -0.70240E-09  3456   0.911E-05    0.105E-04
DAV:  11    -0.137277695027E+04   -0.19243E-06   -0.83262E-09  3520   0.936E-05    0.653E-05
DAV:  12    -0.137277695043E+04   -0.16196E-06   -0.94856E-09  3680   0.112E-04    0.563E-05
DAV:  13    -0.137277695052E+04   -0.83659E-07   -0.53788E-09  3264   0.116E-04    0.412E-05
DAV:  14    -0.137277695057E+04   -0.54206E-07   -0.44053E-09  3136   0.107E-04    0.239E-05
DAV:  15    -0.137277695060E+04   -0.28871E-07   -0.18484E-09  3072   0.700E-05    0.289E-05
DAV:  16    -0.137277695062E+04   -0.20693E-07   -0.45003E-10  3072   0.429E-05    0.183E-05
DAV:  17    -0.137277695064E+04   -0.16153E-07   -0.12870E-11  3072   0.278E-05    0.140E-05
DAV:  18    -0.137277695064E+04   -0.75815E-08    0.35654E-10  3072   0.190E-05
  41 F= -.13920487E+04 E0= -.13920487E+04  d E =0.658712E-03  mag=    -0.0000
       N       E                     dE             d eps       ncg     rms          rms(c)
DAV:   1    -0.137277792144E+04   -0.97080E-03   -0.78396E-02  5184   0.133E-01    0.125E-01
DAV:   2    -0.137277774038E+04    0.18106E-03   -0.10427E-03  5856   0.202E-02    0.667E-02
DAV:   3    -0.137277771247E+04    0.27917E-04   -0.24509E-04  6016   0.968E-03    0.237E-02
DAV:   4    -0.137277771066E+04    0.18083E-05   -0.23578E-05  6336   0.354E-03    0.921E-03
DAV:   5    -0.137277771092E+04   -0.26554E-06   -0.38370E-06  5664   0.148E-03    0.273E-03
DAV:   6    -0.137277771092E+04    0.19500E-08   -0.93027E-07  5232   0.659E-04    0.118E-03
DAV:   7    -0.137277771104E+04   -0.11982E-06   -0.11168E-07  4192   0.280E-04    0.520E-04
DAV:   8    -0.137277771118E+04   -0.13575E-06   -0.38003E-08  4064   0.191E-04    0.233E-04
DAV:   9    -0.137277771127E+04   -0.89582E-07   -0.10768E-08  3584   0.126E-04    0.121E-04
DAV:  10    -0.137277771135E+04   -0.83135E-07   -0.43142E-09  3264   0.919E-05    0.910E-05
DAV:  11    -0.137277771146E+04   -0.11320E-06   -0.80783E-09  3488   0.126E-04    0.466E-05
DAV:  12    -0.137277771151E+04   -0.43394E-07   -0.49122E-09  3360   0.966E-05    0.412E-05
DAV:  13    -0.137277771154E+04   -0.32291E-07   -0.21827E-09  3072   0.647E-05    0.266E-05
DAV:  14    -0.137277771156E+04   -0.20955E-07   -0.16540E-09  3072   0.491E-05    0.152E-05
DAV:  15    -0.137277771157E+04   -0.91386E-08   -0.52973E-10  3072   0.406E-05
  42 F= -.13920496E+04 E0= -.13920496E+04  d E =-.825315E-03  mag=     0.0000
       N       E                     dE             d eps       ncg     rms          rms(c)
DAV:   1    -0.137277792323E+04   -0.21167E-03   -0.73799E-02  5120   0.130E-01    0.103E-01
DAV:   2    -0.137277783308E+04    0.90147E-04   -0.62783E-04  5568   0.152E-02    0.571E-02
DAV:   3    -0.137277782111E+04    0.11978E-04   -0.15337E-04  5856   0.765E-03    0.184E-02
DAV:   4    -0.137277782037E+04    0.73470E-06   -0.16793E-05  6208   0.299E-03    0.664E-03
DAV:   5    -0.137277782081E+04   -0.44238E-06   -0.22104E-06  5600   0.129E-03    0.223E-03
DAV:   6    -0.137277782116E+04   -0.35166E-06   -0.56642E-07  5152   0.585E-04    0.102E-03
DAV:   7    -0.137277782151E+04   -0.34081E-06   -0.10252E-07  4640   0.254E-04    0.497E-04
DAV:   8    -0.137277782200E+04   -0.49319E-06   -0.43279E-08  4096   0.173E-04    0.237E-04
DAV:   9    -0.137277782233E+04   -0.33545E-06   -0.12879E-08  3616   0.115E-04    0.134E-04
DAV:  10    -0.137277782267E+04   -0.33794E-06   -0.15129E-08  3968   0.106E-04    0.112E-04
DAV:  11    -0.137277782301E+04   -0.33759E-06   -0.16782E-08  4016   0.132E-04    0.521E-05
DAV:  12    -0.137277782314E+04   -0.12964E-06   -0.73804E-09  3472   0.134E-04    0.440E-05
DAV:  13    -0.137277782324E+04   -0.99593E-07   -0.55136E-09  3264   0.111E-04    0.288E-05
DAV:  14    -0.137277782330E+04   -0.65091E-07   -0.40415E-09  3168   0.833E-05    0.177E-05
DAV:  15    -0.137277782333E+04   -0.22963E-07   -0.11045E-09  3120   0.472E-05    0.119E-05
DAV:  16    -0.137277782334E+04   -0.14305E-07   -0.29497E-10  3072   0.327E-05    0.898E-06
DAV:  17    -0.137277782335E+04   -0.49477E-08    0.23071E-10  3072   0.214E-05
  43 F= -.13920494E+04 E0= -.13920494E+04  d E =0.151090E-03  mag=    -0.0000
       N       E                     dE             d eps       ncg     rms          rms(c)
DAV:   1    -0.137277799819E+04   -0.17485E-03   -0.70846E-02  4992   0.132E-01    0.904E-02
DAV:   2    -0.137277793046E+04    0.67736E-04   -0.42508E-04  5504   0.130E-02    0.498E-02
DAV:   3    -0.137277792740E+04    0.30588E-05   -0.11490E-04  5760   0.650E-03    0.144E-02
DAV:   4    -0.137277792770E+04   -0.29708E-06   -0.11519E-05  6112   0.254E-03    0.541E-03
DAV:   5    -0.137277792839E+04   -0.69357E-06   -0.14997E-06  5696   0.112E-03    0.188E-03
DAV:   6    -0.137277792903E+04   -0.63999E-06   -0.41882E-07  4992   0.521E-04    0.842E-04
DAV:   7    -0.137277792979E+04   -0.76057E-06   -0.10401E-07  4704   0.263E-04    0.443E-04
DAV:   8    -0.137277793069E+04   -0.89619E-06   -0.51680E-08  4160   0.184E-04    0.249E-04
DAV:   9    -0.137277793134E+04   -0.65326E-06   -0.21552E-08  4064   0.122E-04    0.163E-04
DAV:  10    -0.137277793211E+04   -0.77217E-06   -0.33443E-08  4128   0.120E-04    0.112E-04
DAV:  11    -0.137277793272E+04   -0.60348E-06   -0.26457E-08  4256   0.107E-04    0.705E-05
DAV:  12    -0.137277793297E+04   -0.25721E-06   -0.56814E-09  3488   0.794E-05    0.531E-05
DAV:  13    -0.137277793319E+04   -0.22176E-06   -0.81702E-09  3744   0.876E-05    0.356E-05
DAV:  14    -0.137277793328E+04   -0.88956E-07   -0.26595E-09  3136   0.834E-05    0.205E-05
DAV:  15    -0.137277793335E+04   -0.62340E-07   -0.20770E-09  3104   0.684E-05    0.165E-05
DAV:  16    -0.137277793338E+04   -0.36263E-07   -0.63153E-10  3104   0.447E-05    0.140E-05
DAV:  17    -0.137277793341E+04   -0.28449E-07    0.26895E-11  3072   0.257E-05    0.660E-06
DAV:  18    -0.137277793342E+04   -0.10928E-07    0.40710E-10  3072   0.185E-05    0.737E-06
DAV:  19    -0.137277793343E+04   -0.38417E-08    0.63463E-10  2944   0.112E-05
[...]
DAV:   7    -0.137277595222E+04   -0.82684E-06   -0.30846E-07  4480   0.477E-04    0.567E-04
DAV:   8    -0.137277595283E+04   -0.60663E-06   -0.82834E-08  4896   0.254E-04    0.313E-04
DAV:   9    -0.137277595342E+04   -0.59104E-06   -0.19610E-08  3936   0.140E-04    0.179E-04
DAV:  10    -0.137277595406E+04   -0.63844E-06   -0.21115E-08  4096   0.132E-04    0.112E-04
DAV:  11    -0.137277595461E+04   -0.54916E-06   -0.21576E-08  4032   0.137E-04    0.690E-05
DAV:  12    -0.137277595485E+04   -0.24492E-06   -0.69034E-09  3488   0.102E-04    0.540E-05
DAV:  13    -0.137277595500E+04   -0.15034E-06   -0.37046E-09  3136   0.862E-05    0.327E-05
DAV:  14    -0.137277595510E+04   -0.93685E-07   -0.35381E-09  3136   0.794E-05    0.221E-05
DAV:  15    -0.137277595514E+04   -0.46581E-07   -0.17392E-09  3072   0.614E-05    0.147E-05
DAV:  16    -0.137277595517E+04   -0.31199E-07   -0.11700E-09  3072   0.522E-05    0.109E-05
DAV:  17    -0.137277595518E+04   -0.10405E-07   -0.31319E-10  3072   0.399E-05    0.888E-06
DAV:  18    -0.137277595519E+04   -0.51368E-08    0.31171E-10  3072   0.241E-05
  54 F= -.13920477E+04 E0= -.13920477E+04  d E =-.846870E-05  mag=    -0.0000
       N       E                     dE             d eps       ncg     rms          rms(c)
DAV:   1    -0.137277564045E+04    0.31474E-03   -0.49137E-01  4864   0.539E-01    0.139E-01
DAV:   2    -0.137277573573E+04   -0.95284E-04   -0.39124E-03  5120   0.456E-02    0.860E-02
DAV:   3    -0.137277563301E+04    0.10272E-03   -0.56372E-04  5312   0.168E-02    0.242E-02
DAV:   4    -0.137277563712E+04   -0.41075E-05   -0.59647E-05  5952   0.474E-03    0.103E-02
DAV:   5    -0.137277563636E+04    0.75388E-06   -0.11700E-05  5120   0.244E-03    0.347E-03
DAV:   6    -0.137277563687E+04   -0.50386E-06   -0.11350E-06  4736   0.913E-04    0.157E-03
DAV:   7    -0.137277563754E+04   -0.66857E-06   -0.32123E-07  4464   0.474E-04    0.556E-04
DAV:   8    -0.137277563810E+04   -0.56584E-06   -0.65848E-08  4592   0.219E-04    0.300E-04
DAV:   9    -0.137277563864E+04   -0.54360E-06   -0.18163E-08  3968   0.126E-04    0.189E-04
DAV:  10    -0.137277563926E+04   -0.61437E-06   -0.21589E-08  4128   0.109E-04    0.108E-04
DAV:  11    -0.137277563975E+04   -0.49399E-06   -0.17067E-08  3968   0.959E-05    0.808E-05
DAV:  12    -0.137277564005E+04   -0.30188E-06   -0.68273E-09  3488   0.658E-05    0.564E-05
DAV:  13    -0.137277564030E+04   -0.24050E-06   -0.60889E-09  3360   0.612E-05    0.373E-05
DAV:  14    -0.137277564042E+04   -0.12426E-06   -0.31124E-09  3104   0.525E-05    0.276E-05
DAV:  15    -0.137277564049E+04   -0.67492E-07   -0.19774E-09  3072   0.442E-05    0.177E-05
DAV:  16    -0.137277564052E+04   -0.36336E-07   -0.12385E-09  3072   0.425E-05    0.126E-05
DAV:  17    -0.137277564053E+04   -0.78871E-08   -0.25442E-10  3072   0.335E-05
  55 F= -.13920471E+04 E0= -.13920471E+04  d E =0.607297E-03  mag=     0.0000
       N       E                     dE             d eps       ncg     rms          rms(c)
DAV:   1    -0.137277597164E+04   -0.33112E-03   -0.49290E-01  5056   0.541E-01    0.137E-01
DAV:   2    -0.137277613462E+04   -0.16297E-03   -0.44045E-03  5248   0.482E-02    0.907E-02
DAV:   3    -0.137277601088E+04    0.12374E-03   -0.56389E-04  5312   0.173E-02    0.276E-02
DAV:   4    -0.137277601708E+04   -0.61995E-05   -0.11600E-04  5760   0.579E-03    0.113E-02
DAV:   5    -0.137277601592E+04    0.11610E-05   -0.14011E-05  5056   0.271E-03    0.465E-03
DAV:   6    -0.137277601724E+04   -0.13246E-05   -0.15907E-06  5408   0.101E-03    0.165E-03
DAV:   7    -0.137277601868E+04   -0.14426E-05   -0.35627E-07  4608   0.579E-04    0.592E-04
DAV:   8    -0.137277602000E+04   -0.13156E-05   -0.12685E-07  4896   0.290E-04    0.363E-04
DAV:   9    -0.137277602117E+04   -0.11701E-05   -0.38729E-08  4256   0.171E-04    0.207E-04
DAV:  10    -0.137277602248E+04   -0.13095E-05   -0.58490E-08  4576   0.186E-04    0.135E-04
DAV:  11    -0.137277602328E+04   -0.80485E-06   -0.29753E-08  4176   0.137E-04    0.987E-05
DAV:  12    -0.137277602380E+04   -0.51977E-06   -0.14172E-08  3920   0.106E-04    0.612E-05
DAV:  13    -0.137277602424E+04   -0.43484E-06   -0.15237E-08  4160   0.103E-04    0.459E-05
DAV:  14    -0.137277602439E+04   -0.14945E-06   -0.25517E-09  3072   0.894E-05    0.318E-05
DAV:  15    -0.137277602450E+04   -0.11052E-06   -0.24484E-09  3072   0.750E-05    0.263E-05
DAV:  16    -0.137277602457E+04   -0.69922E-07   -0.13093E-09  3072   0.588E-05    0.226E-05
DAV:  17    -0.137277602459E+04   -0.22788E-07   -0.22437E-10  3104   0.403E-05    0.119E-05
DAV:  18    -0.137277602460E+04   -0.64174E-08    0.28805E-10  3072   0.294E-05
  56 F= -.13920478E+04 E0= -.13920478E+04  d E =-.704105E-03  mag=    -0.0000
       N       E                     dE             d eps       ncg     rms          rms(c)
DAV:   1    -0.137277597129E+04    0.53306E-04   -0.48307E-01  5056   0.463E-01    0.148E-01
DAV:   2    -0.137277592692E+04    0.44369E-04   -0.36463E-03  5312   0.420E-02    0.883E-02
DAV:   3    -0.137277579474E+04    0.13218E-03   -0.67455E-04  5440   0.181E-02    0.212E-02
DAV:   4    -0.137277579700E+04   -0.22633E-05   -0.71905E-05  5728   0.527E-03    0.107E-02
DAV:   5    -0.137277579589E+04    0.11123E-05   -0.93070E-06  5952   0.227E-03    0.440E-03
DAV:   6    -0.137277579577E+04    0.12443E-06   -0.25445E-06  5312   0.122E-03    0.176E-03
DAV:   7    -0.137277579596E+04   -0.19356E-06   -0.28500E-07  5120   0.580E-04    0.909E-04
DAV:   8    -0.137277579624E+04   -0.27711E-06   -0.12589E-07  4128   0.380E-04    0.381E-04
DAV:   9    -0.137277579645E+04   -0.21233E-06   -0.35112E-08  4288   0.218E-04    0.231E-04
DAV:  10    -0.137277579668E+04   -0.22913E-06   -0.89192E-09  3584   0.151E-04    0.150E-04
DAV:  11    -0.137277579703E+04   -0.34910E-06   -0.22982E-08  4336   0.221E-04    0.998E-05
DAV:  12    -0.137277579719E+04   -0.15687E-06   -0.13143E-08  3856   0.134E-04    0.743E-05
DAV:  13    -0.137277579731E+04   -0.12400E-06   -0.30601E-09  3232   0.872E-05    0.537E-05
DAV:  14    -0.137277579739E+04   -0.80428E-07   -0.29745E-09  3168   0.581E-05    0.340E-05
DAV:  15    -0.137277579744E+04   -0.48269E-07   -0.12682E-09  3072   0.483E-05    0.203E-05
DAV:  16    -0.137277579747E+04   -0.31912E-07   -0.72691E-10  3072   0.400E-05    0.163E-05
DAV:  17    -0.137277579749E+04   -0.22192E-07   -0.55870E-10  3072   0.381E-05    0.106E-05
DAV:  18    -0.137277579750E+04   -0.75815E-08    0.11738E-10  3072   0.297E-05
  57 F= -.13920477E+04 E0= -.13920477E+04  d E =0.107386E-03  mag=     0.0000
       N       E                     dE             d eps       ncg     rms          rms(c)
DAV:   1    -0.137277591558E+04   -0.11809E-03   -0.48528E-01  5120   0.464E-01    0.150E-01
DAV:   2    -0.137277588288E+04    0.32695E-04   -0.38084E-03  5312   0.416E-02    0.864E-02
DAV:   3    -0.137277577858E+04    0.10430E-03   -0.61818E-04  5472   0.161E-02    0.256E-02
DAV:   4    -0.137277577940E+04   -0.81383E-06   -0.73025E-05  5920   0.533E-03    0.112E-02
DAV:   5    -0.137277577967E+04   -0.26952E-06   -0.65973E-06  6112   0.185E-03    0.460E-03
DAV:   6    -0.137277577961E+04    0.56491E-07   -0.22547E-06  4992   0.108E-03    0.169E-03
DAV:   7    -0.137277577985E+04   -0.24035E-06   -0.31337E-07  5344   0.527E-04    0.851E-04
DAV:   8    -0.137277578021E+04   -0.35691E-06   -0.10626E-07  4448   0.299E-04    0.394E-04
DAV:   9    -0.137277578053E+04   -0.32478E-06   -0.26709E-08  3872   0.169E-04    0.217E-04
DAV:  10    -0.137277578087E+04   -0.33814E-06   -0.11782E-08  3872   0.129E-04    0.144E-04
DAV:  11    -0.137277578140E+04   -0.53221E-06   -0.28751E-08  4160   0.181E-04    0.815E-05
DAV:  12    -0.137277578163E+04   -0.22426E-06   -0.12407E-08  3872   0.146E-04    0.614E-05
DAV:  13    -0.137277578179E+04   -0.16314E-06   -0.57711E-09  3440   0.110E-04    0.426E-05
DAV:  14    -0.137277578193E+04   -0.14354E-06   -0.65811E-09  3616   0.106E-04    0.269E-05
DAV:  15    -0.137277578198E+04   -0.50451E-07   -0.29053E-09  3168   0.957E-05    0.188E-05
DAV:  16    -0.137277578203E+04   -0.50335E-07   -0.18513E-09  3072   0.637E-05    0.122E-05
DAV:  17    -0.137277578205E+04   -0.14261E-07   -0.43995E-10  3072   0.413E-05    0.118E-05
DAV:  18    -0.137277578205E+04   -0.57044E-08    0.30586E-10  3072   0.247E-05
  58 F= -.13920473E+04 E0= -.13920473E+04  d E =0.403960E-03  mag=     0.0000
       N       E                     dE             d eps       ncg     rms          rms(c)
DAV:   1    -0.137277504165E+04    0.74040E-03   -0.48998E-01  4992   0.468E-01    0.154E-01
DAV:   2    -0.137277510439E+04   -0.62741E-04   -0.42117E-03  5696   0.439E-02    0.983E-02
DAV:   3    -0.137277497670E+04    0.12769E-03   -0.75694E-04  5664   0.195E-02    0.264E-02
DAV:   4    -0.137277498204E+04   -0.53318E-05   -0.10516E-04  5984   0.574E-03    0.131E-02
DAV:   5    -0.137277498115E+04    0.88211E-06   -0.13609E-05  6272   0.268E-03    0.532E-03
DAV:   6    -0.137277498184E+04   -0.68845E-06   -0.21403E-06  5632   0.123E-03    0.199E-03
DAV:   7    -0.137277498291E+04   -0.10676E-05   -0.51502E-07  5376   0.690E-04    0.781E-04
DAV:   8    -0.137277498408E+04   -0.11694E-05   -0.11254E-07  4480   0.316E-04    0.507E-04
DAV:   9    -0.137277498539E+04   -0.13096E-05   -0.54695E-08  4288   0.226E-04    0.287E-04
DAV:  10    -0.137277498689E+04   -0.15038E-05   -0.58070E-08  4352   0.227E-04    0.177E-04
DAV:  11    -0.137277498787E+04   -0.97351E-06   -0.31739E-08  4160   0.151E-04    0.128E-04
DAV:  12    -0.137277498864E+04   -0.77196E-06   -0.20553E-08  4032   0.104E-04    0.743E-05
DAV:  13    -0.137277498909E+04   -0.45434E-06   -0.94912E-09  3936   0.728E-05    0.501E-05
DAV:  14    -0.137277498942E+04   -0.32698E-06   -0.53942E-09  3392   0.657E-05    0.337E-05
DAV:  15    -0.137277498958E+04   -0.16342E-06   -0.30170E-09  3136   0.700E-05    0.231E-05
DAV:  16    -0.137277498966E+04   -0.74593E-07   -0.20651E-09  3136   0.645E-05    0.143E-05
DAV:  17    -0.137277498969E+04   -0.34852E-07   -0.86044E-10  3136   0.431E-05    0.139E-05
DAV:  18    -0.137277498972E+04   -0.22788E-07   -0.46511E-11  3072   0.302E-05    0.807E-06
DAV:  19    -0.137277498972E+04   -0.73342E-08    0.28350E-10  3072   0.226E-05
  59 F= -.13920467E+04 E0= -.13920467E+04  d E =0.610884E-03  mag=     0.0000
       N       E                     dE             d eps       ncg     rms          rms(c)
DAV:   1    -0.137277525209E+04   -0.26237E-03   -0.47944E-01  4992   0.449E-01    0.153E-01
DAV:   2    -0.137277532060E+04   -0.68517E-04   -0.35202E-03  5568   0.383E-02    0.920E-02
DAV:   3    -0.137277525041E+04    0.70189E-04   -0.46653E-04  5664   0.140E-02    0.276E-02
DAV:   4    -0.137277525238E+04   -0.19629E-05   -0.54211E-05  6528   0.446E-03    0.102E-02
DAV:   5    -0.137277525203E+04    0.34540E-06   -0.77370E-06  5984   0.210E-03    0.361E-03
DAV:   6    -0.137277525338E+04   -0.13456E-05   -0.11423E-06  5328   0.969E-04    0.166E-03
DAV:   7    -0.137277525525E+04   -0.18697E-05   -0.35800E-07  5104   0.580E-04    0.690E-04
DAV:   8    -0.137277525703E+04   -0.17878E-05   -0.12085E-07  4720   0.362E-04    0.419E-04
DAV:   9    -0.137277525899E+04   -0.19592E-05   -0.77273E-08  4496   0.270E-04    0.275E-04
DAV:  10    -0.137277526102E+04   -0.20251E-05   -0.10591E-07  4672   0.286E-04    0.162E-04
DAV:  11    -0.137277526211E+04   -0.10879E-05   -0.52380E-08  4400   0.189E-04    0.121E-04
DAV:  12    -0.137277526279E+04   -0.68922E-06   -0.16722E-08  4032   0.977E-05    0.851E-05
DAV:  13    -0.137277526333E+04   -0.53403E-06   -0.12733E-08  4016   0.766E-05    0.469E-05
DAV:  14    -0.137277526365E+04   -0.31810E-06   -0.54435E-09  3456   0.666E-05    0.309E-05
DAV:  15    -0.137277526380E+04   -0.14881E-06   -0.24768E-09  3072   0.628E-05    0.220E-05
DAV:  16    -0.137277526389E+04   -0.92754E-07   -0.19112E-09  3072   0.553E-05    0.135E-05
DAV:  17    -0.137277526394E+04   -0.52358E-07   -0.90566E-10  3072   0.413E-05    0.983E-06
DAV:  18    -0.137277526396E+04   -0.22512E-07   -0.15452E-10  3072   0.317E-05    0.723E-06
DAV:  19    -0.137277526397E+04   -0.78435E-08    0.26425E-10  3072   0.222E-05
  60 F= -.13920470E+04 E0= -.13920470E+04  d E =-.288017E-03  mag=     0.0000
       N       E                     dE             d eps       ncg     rms          rms(c)
DAV:   1    -0.137277689007E+04   -0.16261E-02   -0.48086E-01  4992   0.453E-01    0.154E-01
DAV:   2    -0.137277699173E+04   -0.10166E-03   -0.37938E-03  5920   0.407E-02    0.916E-02
DAV:   3    -0.137277691077E+04    0.80960E-04   -0.53564E-04  5728   0.161E-02    0.258E-02
DAV:   4    -0.137277691504E+04   -0.42680E-05   -0.55889E-05  6176   0.507E-03    0.126E-02
DAV:   5    -0.137277691424E+04    0.80325E-06   -0.13671E-05  5856   0.287E-03    0.414E-03
DAV:   6    -0.137277691506E+04   -0.82680E-06   -0.23698E-06  5696   0.136E-03    0.177E-03
DAV:   7    -0.137277691613E+04   -0.10646E-05   -0.32623E-07  5328   0.604E-04    0.831E-04
DAV:   8    -0.137277691732E+04   -0.11879E-05   -0.94476E-08  4560   0.361E-04    0.448E-04
DAV:   9    -0.137277691848E+04   -0.11659E-05   -0.53824E-08  4544   0.291E-04    0.292E-04
DAV:  10    -0.137277691991E+04   -0.14251E-05   -0.57998E-08  4256   0.283E-04    0.191E-04
DAV:  11    -0.137277692095E+04   -0.10398E-05   -0.53664E-08  4448   0.234E-04    0.128E-04
DAV:  12    -0.137277692163E+04   -0.68298E-06   -0.21996E-08  4032   0.135E-04    0.900E-05
DAV:  13    -0.137277692204E+04   -0.41326E-06   -0.82937E-09  3616   0.735E-05    0.527E-05
DAV:  14    -0.137277692234E+04   -0.29993E-06   -0.75444E-09  3488   0.658E-05    0.372E-05
DAV:  15    -0.137277692247E+04   -0.12974E-06   -0.22982E-09  3072   0.547E-05    0.246E-05
DAV:  16    -0.137277692258E+04   -0.10470E-06   -0.25758E-09  3072   0.531E-05    0.178E-05
DAV:  17    -0.137277692262E+04   -0.41691E-07   -0.10283E-09  3072   0.406E-05    0.142E-05
DAV:  18    -0.137277692265E+04   -0.34517E-07   -0.58582E-10  3072   0.387E-05    0.968E-06
DAV:  19    -0.137277692266E+04   -0.81636E-08    0.63022E-11  3072   0.287E-05
  61 F= -.13920486E+04 E0= -.13920486E+04  d E =-.158878E-02  mag=     0.0000
       N       E                     dE             d eps       ncg     rms          rms(c)
DAV:   1    -0.137277557883E+04    0.13438E-02   -0.49464E-01  5120   0.468E-01    0.168E-01
DAV:   2    -0.137277548519E+04    0.93641E-04   -0.44193E-03  5824   0.424E-02    0.964E-02
DAV:   3    -0.137277538975E+04    0.95442E-04   -0.79393E-04  5824   0.174E-02    0.281E-02
DAV:   4    -0.137277539237E+04   -0.26138E-05   -0.93661E-05  5792   0.600E-03    0.135E-02
DAV:   5    -0.137277539411E+04   -0.17418E-05   -0.12472E-05  6528   0.278E-03    0.426E-03
DAV:   6    -0.137277539474E+04   -0.63791E-06   -0.18844E-06  5504   0.111E-03    0.212E-03
DAV:   7    -0.137277539589E+04   -0.11452E-05   -0.43955E-07  5120   0.454E-04    0.811E-04
DAV:   8    -0.137277539702E+04   -0.11305E-05   -0.84169E-08  4288   0.227E-04    0.386E-04
DAV:   9    -0.137277539810E+04   -0.10800E-05   -0.33723E-08  4160   0.145E-04    0.255E-04
DAV:  10    -0.137277539957E+04   -0.14724E-05   -0.60339E-08  4192   0.157E-04    0.158E-04
DAV:  11    -0.137277540076E+04   -0.11823E-05   -0.53266E-08  4384   0.145E-04    0.103E-04
DAV:  12    -0.137277540133E+04   -0.57553E-06   -0.15380E-08  4080   0.808E-05    0.740E-05
DAV:  13    -0.137277540171E+04   -0.37428E-06   -0.64112E-09  3552   0.594E-05    0.479E-05
DAV:  14    -0.137277540196E+04   -0.25899E-06   -0.55611E-09  3456   0.549E-05    0.329E-05
DAV:  15    -0.137277540209E+04   -0.12139E-06   -0.19296E-09  3072   0.459E-05    0.212E-05
DAV:  16    -0.137277540216E+04   -0.72221E-07   -0.14168E-09  3072   0.407E-05    0.175E-05
DAV:  17    -0.137277540219E+04   -0.29744E-07   -0.54929E-10  3072   0.333E-05    0.102E-05
DAV:  18    -0.137277540220E+04   -0.11772E-07   -0.29157E-11  3072   0.296E-05    0.804E-06
DAV:  19    -0.137277540220E+04   -0.19936E-08    0.43174E-10  3072   0.203E-05
  62 F= -.13920471E+04 E0= -.13920471E+04  d E =0.148484E-02  mag=     0.0000
       N       E                     dE             d eps       ncg     rms          rms(c)
DAV:   1    -0.137277529609E+04    0.10611E-03   -0.49294E-01  5120   0.460E-01    0.144E-01
DAV:   2    -0.137277524275E+04    0.53336E-04   -0.31728E-03  5696   0.362E-02    0.894E-02
DAV:   3    -0.137277511659E+04    0.12617E-03   -0.61484E-04  5632   0.176E-02    0.154E-02
DAV:   4    -0.137277512295E+04   -0.63678E-05   -0.72603E-05  6272   0.502E-03    0.777E-03
DAV:   5    -0.137277512226E+04    0.69760E-06   -0.59854E-06  5920   0.220E-03    0.331E-03
DAV:   6    -0.137277512259E+04   -0.33282E-06   -0.11752E-06  6272   0.131E-03    0.147E-03
DAV:   7    -0.137277512317E+04   -0.58193E-06   -0.22697E-07  5824   0.594E-04    0.653E-04
DAV:   8    -0.137277512400E+04   -0.82402E-06   -0.66839E-08  4576   0.417E-04    0.376E-04
DAV:   9    -0.137277512503E+04   -0.10372E-05   -0.62359E-08  4512   0.363E-04    0.235E-04
DAV:  10    -0.137277512623E+04   -0.11976E-05   -0.84138E-08  4576   0.415E-04    0.144E-04
DAV:  11    -0.137277512678E+04   -0.55402E-06   -0.47289E-08  4384   0.234E-04    0.134E-04
DAV:  12    -0.137277512709E+04   -0.30806E-06   -0.59133E-09  3520   0.888E-05    0.853E-05
DAV:  13    -0.137277512747E+04   -0.38136E-06   -0.14673E-08  3968   0.983E-05    0.508E-05
DAV:  14    -0.137277512762E+04   -0.15023E-06   -0.27005E-09  3136   0.564E-05    0.358E-05
DAV:  15    -0.137277512777E+04   -0.14577E-06   -0.39360E-09  3296   0.508E-05    0.226E-05
DAV:  16    -0.137277512782E+04   -0.50873E-07   -0.85958E-10  3136   0.378E-05    0.171E-05
DAV:  17    -0.137277512788E+04   -0.58179E-07   -0.11520E-09  3072   0.416E-05    0.111E-05
DAV:  18    -0.137277512789E+04   -0.15440E-07   -0.71898E-11  3136   0.323E-05    0.119E-05
DAV:  19    -0.137277512790E+04   -0.77853E-08    0.41891E-10  3008   0.191E-05
  63 F= -.13920472E+04 E0= -.13920472E+04  d E =-.974855E-04  mag=     0.0000
       N       E                     dE             d eps       ncg     rms          rms(c)
DAV:   1    -0.137277744742E+04   -0.23195E-02   -0.49537E-01  5120   0.450E-01    0.150E-01
DAV:   2    -0.137277735838E+04    0.89045E-04   -0.32679E-03  5792   0.356E-02    0.924E-02
DAV:   3    -0.137277721972E+04    0.13866E-03   -0.71232E-04  5504   0.169E-02    0.179E-02
DAV:   4    -0.137277722239E+04   -0.26790E-05   -0.71098E-05  6080   0.495E-03    0.967E-03
DAV:   5    -0.137277722257E+04   -0.17442E-06   -0.69541E-06  6464   0.220E-03    0.453E-03
DAV:   6    -0.137277722302E+04   -0.45354E-06   -0.11906E-06  5440   0.102E-03    0.155E-03
DAV:   7    -0.137277722383E+04   -0.81191E-06   -0.37169E-07  5504   0.536E-04    0.612E-04
DAV:   8    -0.137277722484E+04   -0.10097E-05   -0.73993E-08  4416   0.255E-04    0.389E-04
DAV:   9    -0.137277722604E+04   -0.11960E-05   -0.48395E-08  4192   0.210E-04    0.233E-04
DAV:  10    -0.137277722744E+04   -0.13988E-05   -0.84478E-08  4512   0.276E-04    0.168E-04
DAV:  11    -0.137277722818E+04   -0.73895E-06   -0.38833E-08  4480   0.186E-04    0.119E-04
DAV:  12    -0.137277722861E+04   -0.43413E-06   -0.10268E-08  3584   0.109E-04    0.779E-05
DAV:  13    -0.137277722896E+04   -0.34322E-06   -0.10147E-08  3840   0.937E-05    0.503E-05
DAV:  14    -0.137277722918E+04   -0.22026E-06   -0.57116E-09  3312   0.103E-04    0.309E-05
DAV:  15    -0.137277722931E+04   -0.13656E-06   -0.47710E-09  3072   0.986E-05    0.221E-05
DAV:  16    -0.137277722938E+04   -0.69602E-07   -0.24647E-09  3072   0.685E-05    0.147E-05
DAV:  17    -0.137277722944E+04   -0.63534E-07   -0.16467E-09  3072   0.507E-05    0.929E-06
DAV:  18    -0.137277722946E+04   -0.13242E-07   -0.34825E-10  3072   0.358E-05    0.856E-06
DAV:  19    -0.137277722947E+04   -0.91677E-08    0.28527E-10  3072   0.168E-05
  64 F= -.13920493E+04 E0= -.13920493E+04  d E =-.209037E-02  mag=    -0.0000
