       N       E                     dE             d eps       ncg     rms          rms(c)
DAV:   1    -0.138490942976E+04   -0.13849E+04   -0.13539E+00  6208   0.988E-01    0.951E-01
DAV:   2    -0.138666501847E+04   -0.17556E+01   -0.12057E+00  6144   0.960E-01    0.414E-01
DAV:   3    -0.138667486621E+04   -0.98477E-02   -0.44346E-02  6656   0.233E-01    0.277E-01
DAV:   4    -0.138667491255E+04   -0.46344E-04   -0.22718E-03  5472   0.589E-02    0.224E-01
DAV:   5    -0.138667492161E+04   -0.90572E-05   -0.21839E-04  6656   0.188E-02    0.188E-01
DAV:   6    -0.138667493211E+04   -0.10500E-04   -0.25292E-05  6784   0.732E-03    0.163E-01
DAV:   7    -0.138667493844E+04   -0.63303E-05   -0.23881E-05  6656   0.814E-03    0.130E-01
DAV:   8    -0.138667494356E+04   -0.51248E-05   -0.18342E-05  6176   0.675E-03    0.106E-01
DAV:   9    -0.138667494813E+04   -0.45603E-05   -0.51754E-06  4320   0.356E-03    0.906E-02
DAV:  10    -0.138667495346E+04   -0.53374E-05   -0.19059E-05  6304   0.695E-03    0.578E-02
DAV:  11    -0.138667495754E+04   -0.40764E-05   -0.35462E-05  6528   0.966E-03    0.184E-02
DAV:  12    -0.138667495863E+04   -0.10938E-05   -0.54752E-06  4736   0.322E-03    0.985E-03
DAV:  13    -0.138667495879E+04   -0.15773E-06   -0.64968E-07  2944   0.132E-03
   1 F= -.14062618E+04 E0= -.14062618E+04  d E =-.908160E-24  mag=     0.0000
