 vasp.5.4.4.18Apr17-6-g9f103f2a35 (build Oct 18 2017 12:32:39) complex          
  
 executed on             LinuxIFC date 2021.11.03  17:18:37
 running on   48 total cores
 distrk:  each k-point on   48 cores,    1 groups
 distr:  one band on NCORES_PER_BAND=   6 cores,    8 groups


--------------------------------------------------------------------------------------------------------


 INCAR:
 POTCAR:    PAW_PBE Zr_sv 04Jan2005               
 POTCAR:    PAW_PBE O 08Apr2002                   
 POTCAR:    PAW_PBE H 15Jun2001                   
 POTCAR:    PAW_PBE C 08Apr2002                   
 POTCAR:    PAW_PBE Zr_sv 04Jan2005               
   VRHFIN =Zr: 4s4p5s4d                                                         
   LEXCH  = PE                                                                  
   EATOM  =  1284.2219 eV,   94.3876 Ry                                         
                                                                                
   TITEL  = PAW_PBE Zr_sv 04Jan2005                                             
   LULTRA =        F    use ultrasoft PP ?                                      
   IUNSCR =        1    unscreen: 0-lin 1-nonlin 2-no                           
   RPACOR =    2.200    partial core radius                                     
   POMASS =   91.224; ZVAL   =   12.000    mass and valenz                      
   RCORE  =    2.500    outmost cutoff radius                                   
   RWIGS  =    3.070; RWIGS  =    1.625    wigner-seitz radius (au A)           
   ENMAX  =  229.898; ENMIN  =  172.424 eV                                      
   ICORE  =        3    local potential                                         
   LCOR   =        T    correct aug charges                                     
   LPAW   =        T    paw PP                                                  
   EAUG   =  461.257                                                            
   DEXC   =    0.000                                                            
   RMAX   =    2.561    core radius for proj-oper                               
   RAUG   =    1.300    factor for augmentation sphere                          
   RDEP   =    2.597    radius for radial grids                                 
   RDEPT  =    2.007    core radius for aug-charge                              
                                                                                
   Atomic configuration                                                         
   11 entries                                                                   
     n  l   j            E        occ.                                          
     1  0  0.50    -17820.0161   2.0000                                         
     2  0  0.50     -2467.0882   2.0000                                         
     2  1  1.50     -2199.6095   6.0000                                         
     3  0  0.50      -402.4863   2.0000                                         
     3  1  1.50      -315.3675   6.0000                                         
     3  2  2.50      -172.4472  10.0000                                         
     4  0  0.50       -52.4146   2.0000                                         
     5  0  0.50        -3.8421   1.0000                                         
     4  1  1.50       -30.5054   6.0000                                         
     4  2  2.50        -2.3341   3.0000                                         
     4  3  2.50        -1.3606   0.0000                                         
   Description                                                                  
     l       E           TYP  RCUT    TYP  RCUT                                 
     0    -52.4145962     23  2.200                                             
     0     -3.8421270     23  2.500                                             
     1    -30.5053914     23  2.200                                             
     1     20.4087390     23  2.200                                             
     2     -2.3340816     23  2.500                                             
     2     -0.6120942     23  2.500                                             
     3     -4.0817478     23  2.500                                             
  local pseudopotential read in
  partial core-charges read in
  partial kinetic energy density read in
  atomic valenz-charges read in
  non local Contribution for L=           0  read in
    real space projection operators read in
  non local Contribution for L=           0  read in
    real space projection operators read in
  non local Contribution for L=           1  read in
    real space projection operators read in
  non local Contribution for L=           1  read in
    real space projection operators read in
  non local Contribution for L=           2  read in
    real space projection operators read in
  non local Contribution for L=           2  read in
    real space projection operators read in
    PAW grid and wavefunctions read in
 
   number of l-projection  operators is LMAX  =           6
   number of lm-projection operators is LMMAX =          18
 
 POTCAR:    PAW_PBE O 08Apr2002                   
   VRHFIN =O: s2p4                                                              
   LEXCH  = PE                                                                  
   EATOM  =   432.3788 eV,   31.7789 Ry                                         
                                                                                
   TITEL  = PAW_PBE O 08Apr2002                                                 
   LULTRA =        F    use ultrasoft PP ?                                      
   IUNSCR =        1    unscreen: 0-lin 1-nonlin 2-no                           
   RPACOR =    1.200    partial core radius                                     
   POMASS =   16.000; ZVAL   =    6.000    mass and valenz                      
   RCORE  =    1.520    outmost cutoff radius                                   
   RWIGS  =    1.550; RWIGS  =    0.820    wigner-seitz radius (au A)           
   ENMAX  =  400.000; ENMIN  =  300.000 eV                                      
   ICORE  =        2    local potential                                         
   LCOR   =        T    correct aug charges                                     
   LPAW   =        T    paw PP                                                  
   EAUG   =  605.392                                                            
   DEXC   =    0.000                                                            
   RMAX   =    1.553    core radius for proj-oper                               
   RAUG   =    1.300    factor for augmentation sphere                          
   RDEP   =    1.550    radius for radial grids                                 
   RDEPT  =    1.329    core radius for aug-charge                              
                                                                                
   Atomic configuration                                                         
    4 entries                                                                   
     n  l   j            E        occ.                                          
     1  0  0.50      -514.6923   2.0000                                         
     2  0  0.50       -23.9615   2.0000                                         
     2  1  0.50        -9.0305   4.0000                                         
     3  2  1.50        -9.5241   0.0000                                         
   Description                                                                  
     l       E           TYP  RCUT    TYP  RCUT                                 
     0    -23.9615318     23  1.200                                             
     0     -9.5240782     23  1.200                                             
     1     -9.0304911     23  1.520                                             
     1      8.1634956     23  1.520                                             
     2     -9.5240782      7  1.500                                             
  local pseudopotential read in
  partial core-charges read in
  partial kinetic energy density read in
  kinetic energy density of atom read in
  atomic valenz-charges read in
  non local Contribution for L=           0  read in
    real space projection operators read in
  non local Contribution for L=           0  read in
    real space projection operators read in
  non local Contribution for L=           1  read in
    real space projection operators read in
  non local Contribution for L=           1  read in
    real space projection operators read in
    PAW grid and wavefunctions read in
 
   number of l-projection  operators is LMAX  =           4
   number of lm-projection operators is LMMAX =           8
 
 POTCAR:    PAW_PBE H 15Jun2001                   
   VRHFIN =H: ultrasoft test                                                    
   LEXCH  = PE                                                                  
   EATOM  =    12.4884 eV,    0.9179 Ry                                         
                                                                                
   TITEL  = PAW_PBE H 15Jun2001                                                 
   LULTRA =        F    use ultrasoft PP ?                                      
   IUNSCR =        0    unscreen: 0-lin 1-nonlin 2-no                           
   RPACOR =    0.000    partial core radius                                     
   POMASS =    1.000; ZVAL   =    1.000    mass and valenz                      
   RCORE  =    1.100    outmost cutoff radius                                   
   RWIGS  =    0.700; RWIGS  =    0.370    wigner-seitz radius (au A)           
   ENMAX  =  250.000; ENMIN  =  200.000 eV                                      
   RCLOC  =    0.701    cutoff for local pot                                    
   LCOR   =        T    correct aug charges                                     
   LPAW   =        T    paw PP                                                  
   EAUG   =  400.000                                                            
   RMAX   =    1.123    core radius for proj-oper                               
   RAUG   =    1.200    factor for augmentation sphere                          
   RDEP   =    1.112    radius for radial grids                                 
   RDEPT  =    0.926    core radius for aug-charge                              
                                                                                
   Atomic configuration                                                         
    2 entries                                                                   
     n  l   j            E        occ.                                          
     1  0  0.50        -6.4927   1.0000                                         
     2  1  0.50        -3.4015   0.0000                                         
   Description                                                                  
     l       E           TYP  RCUT    TYP  RCUT                                 
     0     -6.4927494     23  1.100                                             
     0      6.8029130     23  1.100                                             
     1     -4.0817478     23  1.100                                             
  local pseudopotential read in
  atomic valenz-charges read in
  non local Contribution for L=           0  read in
    real space projection operators read in
  non local Contribution for L=           0  read in
    real space projection operators read in
  non local Contribution for L=           1  read in
    real space projection operators read in
    PAW grid and wavefunctions read in
 
   number of l-projection  operators is LMAX  =           3
   number of lm-projection operators is LMMAX =           5
 
 POTCAR:    PAW_PBE C 08Apr2002                   
   VRHFIN =C: s2p2                                                              
   LEXCH  = PE                                                                  
   EATOM  =   147.1560 eV,   10.8157 Ry                                         
                                                                                
   TITEL  = PAW_PBE C 08Apr2002                                                 
   LULTRA =        F    use ultrasoft PP ?                                      
   IUNSCR =        1    unscreen: 0-lin 1-nonlin 2-no                           
   RPACOR =    1.200    partial core radius                                     
   POMASS =   12.011; ZVAL   =    4.000    mass and valenz                      
   RCORE  =    1.500    outmost cutoff radius                                   
   RWIGS  =    1.630; RWIGS  =    0.863    wigner-seitz radius (au A)           
   ENMAX  =  400.000; ENMIN  =  300.000 eV                                      
   ICORE  =        2    local potential                                         
   LCOR   =        T    correct aug charges                                     
   LPAW   =        T    paw PP                                                  
   EAUG   =  644.873                                                            
   DEXC   =    0.000                                                            
   RMAX   =    1.529    core radius for proj-oper                               
   RAUG   =    1.300    factor for augmentation sphere                          
   RDEP   =    1.501    radius for radial grids                                 
   RDEPT  =    1.300    core radius for aug-charge                              
                                                                                
   Atomic configuration                                                         
    4 entries                                                                   
     n  l   j            E        occ.                                          
     1  0  0.50      -273.3789   2.0000                                         
     2  0  0.50       -13.7508   2.0000                                         
     2  1  0.50        -5.2854   2.0000                                         
     3  2  1.50        -5.4423   0.0000                                         
   Description                                                                  
     l       E           TYP  RCUT    TYP  RCUT                                 
     0    -13.7508458     23  1.200                                             
     0     -8.2022199     23  1.200                                             
     1     -5.2854383     23  1.500                                             
     1     34.0145650     23  1.500                                             
     2     -5.4423304      7  1.500                                             
  local pseudopotential read in
  partial core-charges read in
  partial kinetic energy density read in
  atomic valenz-charges read in
  non local Contribution for L=           0  read in
    real space projection operators read in
  non local Contribution for L=           0  read in
    real space projection operators read in
  non local Contribution for L=           1  read in
    real space projection operators read in
  non local Contribution for L=           1  read in
    real space projection operators read in
    PAW grid and wavefunctions read in
 
   number of l-projection  operators is LMAX  =           4
   number of lm-projection operators is LMMAX =           8
 
 Optimization of the real space projectors (new method)

 maximal supplied QI-value         = 15.12
 optimisation between [QCUT,QGAM] = [ 11.34, 22.83] = [ 36.00,145.93] Ry 
 Optimized for a Real-space Cutoff    1.47 Angstroem

   l    n(q)    QCUT    max X(q) W(low)/X(q) W(high)/X(q)  e(spline) 
   0     10    11.338    12.107    0.38E-04    0.13E-04    0.27E-07
   0     10    11.338     9.948    0.69E-04    0.30E-04    0.38E-07
   1     10    11.338     3.563    0.26E-04    0.18E-04    0.40E-07
   1     10    11.338     4.524    0.25E-03    0.39E-04    0.44E-06
   2      9    11.338    87.261    0.26E-03    0.91E-05    0.26E-06
   2      9    11.338    70.950    0.25E-03    0.91E-05    0.25E-06
 Optimization of the real space projectors (new method)

 maximal supplied QI-value         = 24.76
 optimisation between [QCUT,QGAM] = [ 11.39, 22.77] = [ 36.31,145.25] Ry 
 Optimized for a Real-space Cutoff    1.00 Angstroem

   l    n(q)    QCUT    max X(q) W(low)/X(q) W(high)/X(q)  e(spline) 
   0      7    11.387    20.381    0.39E-03    0.13E-02    0.15E-06
   0      7    11.387    15.268    0.42E-03    0.14E-02    0.17E-06
   1      6    11.387     5.964    0.41E-03    0.11E-02    0.17E-06
   1      6    11.387     5.382    0.39E-03    0.87E-03    0.15E-06
 Optimization of the real space projectors (new method)

 maximal supplied QI-value         = 34.20
 optimisation between [QCUT,QGAM] = [ 11.29, 22.57] = [ 35.68,142.71] Ry 
 Optimized for a Real-space Cutoff    1.16 Angstroem

   l    n(q)    QCUT    max X(q) W(low)/X(q) W(high)/X(q)  e(spline) 
   0      8    11.287    19.460    0.40E-03    0.73E-03    0.16E-06
   0      8    11.287    12.209    0.38E-03    0.70E-03    0.15E-06
   1      7    11.287     4.655    0.22E-03    0.25E-04    0.22E-06
 Optimization of the real space projectors (new method)

 maximal supplied QI-value         = 25.13
 optimisation between [QCUT,QGAM] = [ 11.31, 22.87] = [ 35.82,146.48] Ry 
 Optimized for a Real-space Cutoff    1.00 Angstroem

   l    n(q)    QCUT    max X(q) W(low)/X(q) W(high)/X(q)  e(spline) 
   0      7    11.310   115.676    0.43E-03    0.13E-02    0.19E-06
   0      7    11.310    87.132    0.43E-03    0.13E-02    0.18E-06
   1      6    11.310     4.429    0.42E-03    0.74E-03    0.11E-06
   1      6    11.310     2.733    0.34E-03    0.55E-03    0.92E-07
  PAW_PBE Zr_sv 04Jan2005               :
 energy of atom  1       EATOM=-1284.2219
 kinetic energy error for atom=    0.0049 (will be added to EATOM!!)
  PAW_PBE O 08Apr2002                   :
 energy of atom  2       EATOM= -432.3788
 kinetic energy error for atom=    0.0224 (will be added to EATOM!!)
  PAW_PBE H 15Jun2001                   :
 energy of atom  3       EATOM=  -12.4884
 kinetic energy error for atom=    0.0020 (will be added to EATOM!!)
  PAW_PBE C 08Apr2002                   :
 energy of atom  4       EATOM= -147.1560
 kinetic energy error for atom=    0.0076 (will be added to EATOM!!)
 
 
 POSCAR: Zr   O    H    C                        
  positions in direct lattice
  velocities in cartesian coordinates
  No initial velocities read in
 exchange correlation table for  LEXCH =        8
   RHO(1)=    0.500       N(1)  =     2000
   RHO(2)=  100.500       N(2)  =     4000

 VTST: version 3.1, (03/28/14)

 CHAIN: initializing optimizer
 
 OPT: Using Conjugate-Gradient optimizer
 OPT: CG, Init
 OPT: CG, FDSTEP      0.005000
 OPT: CG, MAXMOVE      0.200000
 
 CHAIN: Read ICHAIN            2
 
 POSCAR: Zr   O    H    C                        
  positions in direct lattice
  velocities in cartesian coordinates
  No initial velocities read in
 CHAIN: Running the Dimer method

 Dimer: -----------------
 Dimer: Input Parameters
 Dimer:   Seed      0
 Dimer: RotMax      4
 Dimer:     dR      0.005000
 Dimer:  FNMax      1.000000
 Dimer:  FNMin      0.010000
 Dimer: -----------------
 


--------------------------------------------------------------------------------------------------------


 ion  position               nearest neighbor table
   1  0.088  0.321  0.038-  78 2.10  62 2.10  50 2.18  74 2.19  61 2.26  54 2.30  16 3.37   6 3.50
                            12 3.52  13 3.65
   2  0.338  0.821  0.038-  79 2.10  63 2.10  51 2.18  75 2.19  58 2.26  55 2.30  13 3.37   7 3.50
                             9 3.52  14 3.65
   3  0.588  0.321  0.038-  80 2.10  64 2.10  52 2.18  76 2.19  59 2.26  56 2.30  14 3.37   8 3.50
                            10 3.52  15 3.65
   4  0.838  0.821  0.038-  81 2.10  65 2.10  53 2.18  77 2.19  60 2.26  57 2.30  15 3.37   5 3.50
                            11 3.52  16 3.65
   5  0.070  0.834  0.049-  82 2.07  66 2.10  65 2.18  58 2.19  57 2.22  70 2.30  12 3.37  17 3.47
                             4 3.50  16 3.52   9 3.65
   6  0.320  0.334  0.049-  83 2.06  67 2.10  62 2.18  59 2.19  54 2.22  71 2.30   9 3.37  18 3.48
                             1 3.50  13 3.52  10 3.65
   7  0.570  0.834  0.049-  84 2.06  68 2.10  63 2.18  60 2.19  55 2.22  72 2.30  10 3.37  19 3.49
                             2 3.50  14 3.52  11 3.65
   8  0.820  0.334  0.049-  85 2.08  69 2.10  64 2.18  61 2.19  56 2.22  73 2.30  11 3.37   3 3.50
                            20 3.50  15 3.52  12 3.65
   9  0.238  0.068  0.057-  62 2.10  86 2.16  67 2.18  70 2.19  75 2.22  58 2.30   6 3.37  17 3.48
                            14 3.50  22 3.52   2 3.52   5 3.65
  10  0.488  0.568  0.057-  63 2.10  68 2.18  87 2.18  71 2.19  76 2.22  59 2.30   7 3.37  18 3.48
                            15 3.50   3 3.52  23 3.54   6 3.65
  11  0.738  0.068  0.057-  64 2.10  69 2.18  88 2.18  72 2.19  77 2.22  60 2.30   8 3.37  19 3.47
                            16 3.50  24 3.52   4 3.52   7 3.65
  12  0.988  0.568  0.057-  65 2.10  66 2.18  89 2.18  73 2.19  74 2.22  61 2.30   5 3.37  13 3.50
                            20 3.52   1 3.52  21 3.52   8 3.65
  13  0.220  0.581  0.068-  51 2.10  66 2.10  79 2.18  54 2.19  71 2.26  90 2.26  74 2.30   2 3.37
                            21 3.49  26 3.50  12 3.50  18 3.51   6 3.52   1 3.65
  14  0.470  0.081  0.068-  52 2.10  67 2.10  80 2.18  55 2.19  72 2.26  91 2.27  75 2.30   3 3.37
                            27 3.48  22 3.49   9 3.50  19 3.52   7 3.52   2 3.65
  15  0.720  0.581  0.068-  53 2.10  68 2.10  81 2.18  56 2.19  73 2.26  92 2.26  76 2.30   4 3.37
                            28 3.49  23 3.50  10 3.50   8 3.52  20 3.53   3 3.65
  16  0.970  0.081  0.068-  50 2.10  69 2.10  78 2.18  57 2.19  70 2.26  93 2.26  77 2.30   1 3.37
                            24 3.50  17 3.50  11 3.50  25 3.50   5 3.52   4 3.65
  17  0.106  0.983  0.171-  94 2.09 110 2.13  82 2.17  70 2.19 106 2.19  93 2.24  86 2.30  32 3.39
                             5 3.47   9 3.48  16 3.50  22 3.52  25 3.54  29 3.67
  18  0.357  0.484  0.171-  95 2.09 111 2.13  83 2.16  71 2.19 107 2.20  90 2.23  87 2.29  29 3.37
                             6 3.48  10 3.48  13 3.51  23 3.52  26 3.54  30 3.65
  19  0.608  0.985  0.171-  96 2.09 112 2.15  84 2.18  72 2.20 108 2.20  91 2.22  88 2.28  30 3.39
                            11 3.47  24 3.49   7 3.49  27 3.51  14 3.52  31 3.69
  20  0.856  0.483  0.173-  97 2.10 113 2.10  85 2.18 109 2.20  73 2.23  92 2.23  89 2.32  31 3.33
                             8 3.50  28 3.51  12 3.52  15 3.53  21 3.53  32 3.65
  21  0.090  0.495  0.182- 114 2.08  98 2.11  97 2.17  90 2.18  74 2.24  89 2.28 102 2.30  25 3.37
                            13 3.49  32 3.51  12 3.52  20 3.53  26 3.63  33 3.63
  22  0.339  0.995  0.182- 115 2.10  99 2.11  94 2.17  91 2.19  75 2.23 103 2.25  86 2.27  26 3.38
                            14 3.49  29 3.51   9 3.52  17 3.52  34 3.60  27 3.63
  23  0.589  0.492  0.183- 100 2.08 116 2.12  95 2.16  92 2.18  76 2.24  87 2.29 104 2.30  27 3.36
                            15 3.50  35 3.51  18 3.52  10 3.54  30 3.56  28 3.68
  24  0.839  0.996  0.183- 117 2.10 101 2.10  93 2.18  96 2.18  77 2.25  88 2.26 105 2.29  28 3.37
                            19 3.49  16 3.50  11 3.52  31 3.54  36 3.62  25 3.64
  25  0.005  0.230  0.191-  78 2.10  97 2.10 121 2.16  98 2.19 105 2.22 106 2.30  93 2.30  21 3.37
                            37 3.44  16 3.50  17 3.54  29 3.55  24 3.64  36 3.66
  26  0.254  0.730  0.191-  79 2.10  94 2.10 102 2.18  99 2.19 118 2.20 107 2.29  90 2.29  22 3.38
                            38 3.46  13 3.50  18 3.54  30 3.55  21 3.63  33 3.63
  27  0.504  0.228  0.191-  80 2.09  95 2.12 119 2.17 100 2.19 103 2.20  91 2.29 108 2.30  23 3.36
                            14 3.48  39 3.48  19 3.51  31 3.58  22 3.63  34 3.66
  28  0.757  0.730  0.191-  81 2.08  96 2.11 101 2.17 120 2.22 104 2.23 109 2.24  92 2.30  24 3.37
                            15 3.49  32 3.50  35 3.50  20 3.51  40 3.54  23 3.68
  29  0.240  0.242  0.201-  98 2.10  83 2.10 122 2.19 103 2.21 111 2.21  86 2.23 106 2.29  18 3.37
                            37 3.41  42 3.50  22 3.51  25 3.55  34 3.63  17 3.67
  30  0.489  0.743  0.200-  99 2.09  84 2.09 112 2.19 123 2.21  87 2.22 104 2.25 107 2.29  19 3.39
                            38 3.44  43 3.48  35 3.53  26 3.55  23 3.56  18 3.65
  31  0.741  0.245  0.204- 100 2.11  85 2.12 113 2.12 105 2.21 124 2.26  88 2.29 108 2.31  20 3.33
                            39 3.47  24 3.54  44 3.57  27 3.58  36 3.62  19 3.69
  32  0.989  0.741  0.202- 101 2.12  82 2.12 110 2.19 125 2.21 102 2.21  89 2.22 109 2.27  17 3.39
                            41 3.47  40 3.48  28 3.50  21 3.51  33 3.63  20 3.65
  33  0.124  0.642  0.313- 142 2.02 126 2.16 138 2.17 114 2.20 125 2.25 118 2.36 102 2.40  45 3.23
                            41 3.48  38 3.54  26 3.63  32 3.63  21 3.63  46 3.70
  34  0.371  0.139  0.313- 143 2.03 127 2.13 139 2.18 115 2.20 122 2.24 119 2.38 103 2.42  46 3.22
                            42 3.49  39 3.52  22 3.60  29 3.63  47 3.64  27 3.66
  35  0.624  0.646  0.306- 140 2.15 128 2.16 116 2.19 123 2.20 104 2.21 144 2.23 120 2.26  49 3.31
                            43 3.45  47 3.45  28 3.50  23 3.51  30 3.53  40 3.55  48 3.71
  36  0.874  0.139  0.314- 145 2.03 129 2.12 141 2.14 117 2.22 124 2.32 105 2.37 121 2.46  48 3.22
                            44 3.41  37 3.55  24 3.62  31 3.62  25 3.66  45 3.77
  37  0.110  0.161  0.312- 130 2.09 121 2.13 106 2.16 122 2.16 129 2.17 134 2.17  29 3.41  25 3.44
                            41 3.45  45 3.49  36 3.55  42 3.59
  38  0.359  0.659  0.313- 131 2.10 126 2.15 107 2.15 135 2.16 123 2.17 118 2.17  42 3.44  30 3.44
                            26 3.46  33 3.54  46 3.54  43 3.58
  39  0.605  0.158  0.315- 136 2.07 132 2.11 127 2.15 108 2.18 124 2.19 119 2.21  47 3.43  43 3.44
                            31 3.47  27 3.48  34 3.52  44 3.78
  40  0.859  0.663  0.318- 133 2.12 125 2.17 120 2.19 137 2.20 146 2.23 128 2.25 109 2.27  44 3.46
                            32 3.48  48 3.50  28 3.54  35 3.55  41 3.58  49 3.71
  41  0.027  0.889  0.324- 110 2.05 138 2.15 129 2.16 137 2.19 130 2.19 125 2.29  37 3.45  32 3.47
                            33 3.48  46 3.50  40 3.58
  42  0.276  0.389  0.325- 111 2.06 139 2.13 126 2.14 131 2.24 134 2.26 122 2.29  38 3.44  47 3.48
                            34 3.49  29 3.50  37 3.59
  43  0.524  0.886  0.325- 112 2.06 127 2.14 140 2.15 132 2.18 135 2.26 123 2.29  39 3.44  35 3.45
                            30 3.48  48 3.53  38 3.58
  44  0.789  0.386  0.332- 147 2.05 141 2.11 133 2.11 113 2.21 128 2.24 124 2.25  49 3.29  45 3.40
                            36 3.41  40 3.46  31 3.57  39 3.78
  45  0.015  0.407  0.336- 142 2.03 114 2.06 133 2.17 141 2.22 134 2.25 121 2.30  33 3.23  44 3.40
                            37 3.49  36 3.77
  46  0.259  0.906  0.336- 143 2.02 115 2.07 130 2.16 138 2.27 118 2.29 135 2.31  34 3.22  41 3.50
                            38 3.54  33 3.70
  47  0.506  0.398  0.335- 116 2.09 136 2.09 131 2.17 119 2.22 139 2.23 144 2.25  39 3.43  35 3.45
                            42 3.48  34 3.64
  48  0.759  0.908  0.336- 145 2.01 117 2.05 132 2.16 137 2.26 120 2.32 140 2.34  36 3.22  40 3.50
                            43 3.53  35 3.71
  49  0.699  0.545  0.423- 147 1.95 151 2.02 144 2.09 148 2.10 146 2.18 128 2.36 164 2.46  44 3.29
                            35 3.31  40 3.71
  50  0.024  0.173  0.000-  16 2.10   1 2.18
  51  0.274  0.673  0.000-  13 2.10   2 2.18
  52  0.524  0.173  0.000-  14 2.10   3 2.18
  53  0.774  0.673  0.000-  15 2.10   4 2.18
  54  0.215  0.432  0.016-  13 2.19   6 2.22   1 2.30
  55  0.465  0.932  0.016-  14 2.19   7 2.22   2 2.30
  56  0.715  0.432  0.016-  15 2.19   8 2.22   3 2.30
  57  0.965  0.932  0.016-  16 2.19   5 2.22   4 2.30
  58  0.207  0.891  0.025-   5 2.19   2 2.26   9 2.30
  59  0.457  0.391  0.025-   6 2.19   3 2.26  10 2.30
  60  0.707  0.891  0.025-   7 2.19   4 2.26  11 2.30
  61  0.957  0.391  0.025-   8 2.19   1 2.26  12 2.30
  62  0.197  0.226  0.044-   9 2.10   1 2.10   6 2.18
  63  0.447  0.726  0.044-  10 2.10   2 2.10   7 2.18
  64  0.697  0.226  0.044-  11 2.10   3 2.10   8 2.18
  65  0.947  0.726  0.044-  12 2.10   4 2.10   5 2.18
  66  0.111  0.675  0.062-   5 2.10  13 2.10  12 2.18
  67  0.361  0.175  0.062-   6 2.10  14 2.10   9 2.18
  68  0.611  0.675  0.062-   7 2.10  15 2.10  10 2.18
  69  0.861  0.175  0.062-   8 2.10  16 2.10  11 2.18
  70  0.101  0.010  0.081-  17 2.19   9 2.19  16 2.26   5 2.30
  71  0.351  0.510  0.081-  18 2.19  10 2.19  13 2.26   6 2.30
  72  0.601  0.010  0.081-  11 2.19  19 2.20  14 2.26   7 2.30
  73  0.851  0.510  0.081-  12 2.19  20 2.23  15 2.26   8 2.30
  74  0.093  0.470  0.090-   1 2.19  12 2.22  21 2.24  13 2.30
  75  0.343  0.970  0.090-   2 2.19   9 2.22  22 2.23  14 2.30
  76  0.593  0.470  0.090-   3 2.19  10 2.22  23 2.24  15 2.30
  77  0.843  0.970  0.090-   4 2.19  11 2.22  24 2.25  16 2.30
  78  0.034  0.229  0.106-  25 2.10   1 2.10  16 2.18
  79  0.284  0.729  0.106-   2 2.10  26 2.10  13 2.18
  80  0.534  0.229  0.106-  27 2.09   3 2.10  14 2.18
  81  0.784  0.729  0.106-  28 2.08   4 2.10  15 2.18
  82  0.045  0.833  0.134-   5 2.07  32 2.12  17 2.17
  83  0.297  0.334  0.133-   6 2.06  29 2.10  18 2.16
  84  0.546  0.834  0.134-   7 2.06  30 2.09  19 2.18
  85  0.796  0.333  0.134-   8 2.08  31 2.12  20 2.18
  86  0.231  0.093  0.146-   9 2.16  29 2.23  22 2.27  17 2.30
  87  0.482  0.594  0.147-  10 2.18  30 2.22  23 2.29  18 2.29
  88  0.732  0.094  0.147-  11 2.18  24 2.26  19 2.28  31 2.29
  89  0.982  0.594  0.147-  12 2.18  32 2.22  21 2.28  20 2.32
  90  0.226  0.552  0.160-  21 2.18  18 2.23  13 2.26  26 2.29
  91  0.476  0.051  0.161-  22 2.19  19 2.22  14 2.27  27 2.29
  92  0.725  0.552  0.161-  23 2.18  20 2.23  15 2.26  28 2.30
  93  0.975  0.053  0.161-  24 2.18  17 2.24  16 2.26  25 2.30
  94  0.215  0.890  0.181-  17 2.09  26 2.10  22 2.17
  95  0.465  0.390  0.181-  18 2.09  27 2.12  23 2.16
  96  0.715  0.889  0.181-  19 2.09  28 2.11  24 2.18
  97  0.966  0.391  0.182-  20 2.10  25 2.10  21 2.17
  98  0.130  0.335  0.192-  29 2.10  21 2.11  25 2.19
  99  0.379  0.835  0.193-  30 2.09  22 2.11  26 2.19
 100  0.629  0.334  0.193-  23 2.08  31 2.11  27 2.19
 101  0.880  0.837  0.194-  24 2.10  32 2.12  28 2.17
 102  0.118  0.672  0.214-  26 2.18  32 2.21  21 2.30  33 2.40
 103  0.367  0.169  0.213-  27 2.20  29 2.21  22 2.25  34 2.42
 104  0.619  0.670  0.214-  35 2.21  28 2.23  30 2.25  23 2.30
 105  0.868  0.170  0.217-  31 2.21  25 2.22  24 2.29  36 2.37
 106  0.116  0.130  0.224-  37 2.16  17 2.19  29 2.29  25 2.30
 107  0.365  0.631  0.224-  38 2.15  18 2.20  26 2.29  30 2.29
 108  0.616  0.131  0.225-  39 2.18  19 2.20  27 2.30  31 2.31
 109  0.864  0.632  0.225-  20 2.20  28 2.24  40 2.27  32 2.27
 110  0.047  0.894  0.240-  41 2.05  17 2.13  32 2.19
 111  0.298  0.395  0.241-  42 2.06  18 2.13  29 2.21
 112  0.548  0.893  0.240-  43 2.06  19 2.15  30 2.19
 113  0.798  0.394  0.240-  20 2.10  31 2.12  44 2.21
 114  0.071  0.493  0.269-  45 2.06  21 2.08  33 2.20
 115  0.313  0.992  0.268-  46 2.07  22 2.10  34 2.20
 116  0.564  0.491  0.270-  47 2.09  23 2.12  35 2.19
 117  0.810  0.994  0.268-  48 2.05  24 2.10  36 2.22
 118  0.252  0.750  0.283-  38 2.17  26 2.20  46 2.29  33 2.36
 119  0.498  0.251  0.280-  27 2.17  39 2.21  47 2.22  34 2.38
 120  0.750  0.749  0.283-  40 2.19  28 2.22  35 2.26  48 2.32
 121  0.006  0.252  0.281-  37 2.13  25 2.16  45 2.30  36 2.46
 122  0.245  0.214  0.291-  37 2.16  29 2.19  34 2.24  42 2.29
 123  0.495  0.711  0.291-  38 2.17  35 2.20  30 2.21  43 2.29
 124  0.743  0.219  0.297-  39 2.19  44 2.25  31 2.26  36 2.32
 125  0.995  0.713  0.293-  40 2.17  32 2.21  33 2.25  41 2.29
 126  0.239  0.554  0.328-  42 2.14  38 2.15  33 2.16
 127  0.485  0.051  0.325-  34 2.13  43 2.14  39 2.15
 128  0.734  0.551  0.327-  35 2.16  44 2.24  40 2.25  49 2.36
 129  0.989  0.056  0.328-  36 2.12  41 2.16  37 2.17
 130  0.146  0.003  0.331-  37 2.09  46 2.16  41 2.19
 131  0.399  0.504  0.335-  38 2.10  47 2.17  42 2.24
 132  0.642  0.000  0.335-  39 2.11  48 2.16  43 2.18
 133  0.901  0.502  0.327-  44 2.11  40 2.12  45 2.17
 134  0.138  0.320  0.352-  37 2.17  45 2.25  42 2.26
 135  0.386  0.819  0.351-  38 2.16  43 2.26  46 2.31
 136  0.606  0.301  0.362-  39 2.07  47 2.09
 137  0.889  0.834  0.346-  41 2.19  40 2.20  48 2.26
 138  0.132  0.800  0.356-  41 2.15  33 2.17  46 2.27
 139  0.380  0.297  0.355-  42 2.13  34 2.18  47 2.23
 140  0.630  0.793  0.355-  35 2.15  43 2.15  48 2.34
 141  0.895  0.295  0.355-  44 2.11  36 2.14  45 2.22
 142  0.068  0.545  0.374-  33 2.02  45 2.03
 143  0.316  0.042  0.374-  46 2.02  34 2.03
 144  0.580  0.542  0.378-  49 2.09  35 2.23  47 2.25
 145  0.816  0.043  0.375-  48 2.01  36 2.03
 146  0.813  0.662  0.406- 149 0.97  49 2.18  40 2.23
 147  0.762  0.414  0.415-  49 1.95  44 2.05
 148  0.696  0.673  0.481-  49 2.10
 149  0.838  0.720  0.431- 146 0.97
 150  0.487  0.555  0.544- 165 1.10
 151  0.676  0.605  0.500-  49 2.02
 152  0.509  0.573  0.472- 165 1.10
 153  0.704  0.424  0.518- 164 1.10
 154  0.655  0.522  0.559- 164 1.10
 155  0.370  0.406  0.524- 167 1.10
 156  0.558  0.378  0.468- 166 1.11
 157  0.401  0.401  0.454- 167 1.11
 158  0.327  0.603  0.508- 168 1.10
 159  0.356  0.588  0.437- 168 1.11
 160  0.192  0.540  0.444- 169 1.10
 161  0.207  0.451  0.502- 169 1.10
 162  0.240  0.414  0.435- 169 1.11
 163  0.540  0.365  0.540- 166 1.10
 164  0.652  0.483  0.517- 154 1.10 153 1.10 166 1.53  49 2.46
 165  0.489  0.510  0.504- 152 1.10 150 1.10 167 1.52 166 1.53
 166  0.559  0.427  0.507- 163 1.10 156 1.11 164 1.53 165 1.53
 167  0.396  0.458  0.489- 155 1.10 157 1.11 165 1.52 168 1.53
 168  0.330  0.541  0.474- 158 1.10 159 1.11 169 1.52 167 1.53
 169  0.237  0.486  0.463- 160 1.10 161 1.10 162 1.11 168 1.52
 
  Warning from LATTYP: Monoclinic adjustement (A1->A3, A2->A1, A3->A2)!
  Warning from LATTYP: Got some problem with cell dimensions!
  Tried to take original basis but could not verify dimensions!
  LATTYP: Found a simple monoclinic cell.
 ALAT       =    18.5584556648
 B/A-ratio  =     1.2917238965
 C/A-ratio  =     1.7011970181
 COS(beta)  =    -0.9496615564
  
  Lattice vectors:
  
 A1 = ( -14.0305058395, -12.1474763861,   0.0000000000)
 A2 = (   0.0000000000,   0.0000000000, -23.9724006653)
 A3 = (  29.1411063110,  12.1474763861,   0.0000000000)


Analysis of symmetry for initial positions (statically):
=====================================================================
 Subroutine PRICEL returns:
 Original cell was already a primitive cell.
 

 Routine SETGRP: Setting up the symmetry group for a 
 simple monoclinic supercell.


 Subroutine GETGRP returns: Found  1 space group operations
 (whereof  1 operations were pure point group operations)
 out of a pool of  4 trial point group operations.


The static configuration has the point symmetry C_1 .


Analysis of symmetry for dynamics (positions and initial velocities):
=====================================================================
 Subroutine PRICEL returns:
 Original cell was already a primitive cell.
 

 Routine SETGRP: Setting up the symmetry group for a 
 simple monoclinic supercell.


 Subroutine GETGRP returns: Found  1 space group operations
 (whereof  1 operations were pure point group operations)
 out of a pool of  4 trial point group operations.


The dynamic configuration has the point symmetry C_1 .


Analysis of constrained symmetry for selective dynamics:
=====================================================================
 Subroutine PRICEL returns:
 Original cell was already a primitive cell.
 

 Routine SETGRP: Setting up the symmetry group for a 
 simple monoclinic supercell.


 Subroutine GETGRP returns: Found  1 space group operations
 (whereof  1 operations were pure point group operations)
 out of a pool of  4 trial point group operations.


The constrained configuration has the point symmetry C_1 .


Analysis of structural, dynamic, and magnetic symmetry:
=====================================================================
 Subroutine PRICEL returns:
 Original cell was already a primitive cell.
 

 Routine SETGRP: Setting up the symmetry group for a 
 simple monoclinic supercell.


 Subroutine GETGRP returns: Found  1 space group operations
 (whereof  1 operations were pure point group operations)
 out of a pool of  4 trial point group operations.


The magnetic configuration has the point symmetry C_1 .


 Subroutine INISYM returns: Found  1 space group operations
 (whereof  1 operations are pure point group operations),
 and found     1 'primitive' translations

 
 
 KPOINTS: Monkhorst Pack                          

Automatic generation of k-mesh.
Space group operators:
 irot       det(A)        alpha          n_x          n_y          n_z        tau_x        tau_y        tau_z
    1     1.000000     0.000001     1.000000     0.000000     0.000000     0.000000     0.000000     0.000000
 
 Subroutine IBZKPT returns following result:
 ===========================================
 
 Found      2 irreducible k-points:
 
 Following reciprocal coordinates:
            Coordinates               Weight
  0.250000  0.250000  0.000000      2.000000
 -0.250000  0.250000  0.000000      2.000000
 
 Following cartesian coordinates:
            Coordinates               Weight
  0.016545  0.022051  0.000000      2.000000
 -0.016545  0.019109  0.000000      2.000000
 


--------------------------------------------------------------------------------------------------------




 Dimension of arrays:
   k-points           NKPTS =      2   k-points in BZ     NKDIM =      2   number of bands    NBANDS=    640
   number of dos      NEDOS =    301   number of ions     NIONS =    169
   non local maximal  LDIM  =      6   non local SUM 2l+1 LMDIM =     18
   total plane-waves  NPLWV = 823200
   max r-space proj   IRMAX =   2561   max aug-charges    IRDMAX=   7978
   dimension x,y,z NGX =    84 NGY =   70 NGZ =  140
   dimension x,y,z NGXF=   168 NGYF=  140 NGZF=  280
   support grid    NGXF=   168 NGYF=  140 NGZF=  280
   ions per type =              49  98  16   6
   NGX,Y,Z   is equivalent  to a cutoff of   9.24,  9.54,  9.71 a.u.
   NGXF,Y,Z  is equivalent  to a cutoff of  18.48, 19.08, 19.42 a.u.

 SYSTEM =  mZrO2_n111_dimer                        
 POSCAR =  Zr   O    H    C                        

 Startparameter for this run:
   NWRITE =      2    write-flag & timer
   PREC   = normal    normal or accurate (medium, high low for compatibility)
   ISTART =      1    job   : 0-new  1-cont  2-samecut
   ICHARG =      1    charge: 1-file 2-atom 10-const
   ISPIN  =      2    spin polarized calculation?
   LNONCOLLINEAR =      F non collinear calculations
   LSORBIT =      F    spin-orbit coupling
   INIWAV =      1    electr: 0-lowe 1-rand  2-diag
   LASPH  =      F    aspherical Exc in radial PAW
   METAGGA=      F    non-selfconsistent MetaGGA calc.

 Electronic Relaxation 1
   ENCUT  =  500.0 eV  36.75 Ry    6.06 a.u.  27.55 22.24 43.71*2*pi/ulx,y,z
   ENINI  =  500.0     initial cutoff
   ENAUG  =  644.9 eV  augmentation charge cutoff
   NELM   =    300;   NELMIN=  2; NELMDL=  0     # of ELM steps 
   EDIFF  = 0.1E-05   stopping-criterion for ELM
   LREAL  =      T    real-space projection
   NLSPLINE    = F    spline interpolate recip. space projectors
   LCOMPAT=      F    compatible to vasp.4.4
   GGA_COMPAT  = T    GGA compatible to vasp.4.4-vasp.4.6
   LMAXPAW     = -100 max onsite density
   LMAXMIX     =    2 max onsite mixed and CHGCAR
   VOSKOWN=      0    Vosko Wilk Nusair interpolation
   ROPT   =   -0.00050  -0.00050  -0.00050  -0.00050
 Ionic relaxation
   EDIFFG = -.5E-01   stopping-criterion for IOM
   NSW    =      0    number of steps for IOM
   NBLOCK =      1;   KBLOCK =      1    inner block; outer block 
   IBRION =     -1    ionic relax: 0-MD 1-quasi-New 2-CG
   NFREE  =      0    steps in history (QN), initial steepest desc. (CG)
   ISIF   =      2    stress and relaxation
   IWAVPR =     10    prediction:  0-non 1-charg 2-wave 3-comb
   ISYM   =      2    0-nonsym 1-usesym 2-fastsym
   LCORR  =      T    Harris-Foulkes like correction to forces

   POTIM  = 0.0000    time-step for ionic-motion
   TEIN   =    0.0    initial temperature
   TEBEG  =    0.0;   TEEND  =   0.0 temperature during run
   SMASS  =  -3.00    Nose mass-parameter (am)
   estimated Nose-frequenzy (Omega)   =  0.10E-29 period in steps =  0.00 mass=  -0.522E-26a.u.
   SCALEE = 1.0000    scale energy and forces
   NPACO  =    256;   APACO  = 16.0  distance and # of slots for P.C.
   PSTRESS=    0.0 pullay stress

  Mass of Ions in am
   POMASS =  91.22 16.00  1.00 12.01
  Ionic Valenz
   ZVAL   =  12.00  6.00  1.00  4.00
  Atomic Wigner-Seitz radii
   RWIGS  =  -1.00 -1.00 -1.00 -1.00
  virtual crystal weights 
   VCA    =   1.00  1.00  1.00  1.00
   NELECT =    1216.0000    total number of electrons
   NUPDOWN=      -1.0000    fix difference up-down

 DOS related values:
   EMIN   =  10.00;   EMAX   =-10.00  energy-range for DOS
   EFERMI =   0.00
   ISMEAR =     0;   SIGMA  =   0.05  broadening in eV -4-tet -1-fermi 0-gaus

 Electronic relaxation 2 (details)
   IALGO  =     38    algorithm
   LDIAG  =      T    sub-space diagonalisation (order eigenvalues)
   LSUBROT=      F    optimize rotation matrix (better conditioning)
   TURBO    =      0    0=normal 1=particle mesh
   IRESTART =      0    0=no restart 2=restart with 2 vectors
   NREBOOT  =      0    no. of reboots
   NMIN     =      0    reboot dimension
   EREF     =   0.00    reference energy to select bands
   IMIX   =      4    mixing-type and parameters
     AMIX     =   0.40;   BMIX     =  1.00
     AMIX_MAG =   1.60;   BMIX_MAG =  1.00
     AMIN     =   0.10
     WC   =   100.;   INIMIX=   1;  MIXPRE=   1;  MAXMIX= -45

 Intra band minimization:
   WEIMIN = 0.0000     energy-eigenvalue tresh-hold
   EBREAK =  0.39E-09  absolut break condition
   DEPER  =   0.30     relativ break condition  

   TIME   =   0.40     timestep for ELM

  volume/ion in A,a.u.               =      26.04       175.71
  Fermi-wavevector in a.u.,A,eV,Ry     =   1.066333  2.015077 15.470728  1.137066
  Thomas-Fermi vector in A             =   2.201914
 
 Write flags
   LWAVE        =      T    write WAVECAR
   LDOWNSAMPLE  =      F    k-point downsampling of WAVECAR
   LCHARG       =      T    write CHGCAR
   LVTOT        =      F    write LOCPOT, total local potential
   LVHAR        =      F    write LOCPOT, Hartree potential only
   LELF         =      F    write electronic localiz. function (ELF)
   LORBIT       =      0    0 simple, 1 ext, 2 COOP (PROOUT), +10 PAW based schemes


 Dipole corrections
   LMONO  =      F    monopole corrections only (constant potential shift)
   LDIPOL =      F    correct potential (dipole corrections)
   IDIPOL =      3    1-x, 2-y, 3-z, 4-all directions 
   EPSILON=  1.0000000 bulk dielectric constant

 LDA+U is selected, type is set to LDAUTYPE =  2
   angular momentum for each species LDAUL =     2   -1   -1   -1
   U (eV)           for each species LDAUU =   4.0  0.0  0.0  0.0
   J (eV)           for each species LDAUJ =   0.0  0.0  0.0  0.0
 Exchange correlation treatment:
   GGA     =    --    GGA type
   LEXCH   =     8    internal setting for exchange type
   VOSKOWN=      0    Vosko Wilk Nusair interpolation
   LHFCALC =     F    Hartree Fock is set to
   LHFONE  =     F    Hartree Fock one center treatment
   AEXX    =    0.0000 exact exchange contribution

 Linear response parameters
   LEPSILON=     F    determine dielectric tensor
   LRPA    =     F    only Hartree local field effects (RPA)
   LNABLA  =     F    use nabla operator in PAW spheres
   LVEL    =     F    velocity operator in full k-point grid
   LINTERFAST=   F  fast interpolation
   KINTER  =     0    interpolate to denser k-point grid
   CSHIFT  =0.1000    complex shift for real part using Kramers Kronig
   OMEGAMAX=  -1.0    maximum frequency
   DEG_THRESHOLD= 0.2000000E-02 threshold for treating states as degnerate
   RTIME   =   -0.100 relaxation time in fs
  (WPLASMAI=    0.000 imaginary part of plasma frequency in eV, 0.658/RTIME)
   DFIELD  = 0.0000000 0.0000000 0.0000000 field for delta impulse in time
 
 Orbital magnetization related:
   ORBITALMAG=     F  switch on orbital magnetization
   LCHIMAG   =     F  perturbation theory with respect to B field
   DQ        =  0.001000  dq finite difference perturbation B field
   LLRAUG    =     F  two centre corrections for induced B field



--------------------------------------------------------------------------------------------------------


 Static calculation
 charge density and potential will be updated during run
 spin polarized calculation
 Variant of blocked Davidson
 Davidson routine will perform the subspace rotation
 perform sub-space diagonalisation
    after iterative eigenvector-optimisation
 modified Broyden-mixing scheme, WC =      100.0
 initial mixing is a Kerker type mixing with AMIX =  0.4000 and BMIX =      1.0000
 Hartree-type preconditioning will be used
 using additional bands           32
 real space projection scheme for non local part
 use partial core corrections
 calculate Harris-corrections to forces 
   (improved forces if not selfconsistent)
 use gradient corrections 
 use of overlap-Matrix (Vanderbilt PP)
 Gauss-broadening in eV      SIGMA  =   0.05


--------------------------------------------------------------------------------------------------------


  energy-cutoff  :      500.00
  volume of cell :     4400.27
      direct lattice vectors                 reciprocal lattice vectors
    15.110600471  0.000000000  0.000000000     0.066178707  0.005884289  0.000000000
    -1.080094632 12.147476386  0.000000000     0.000000000  0.082321625  0.000000000
     0.000000000  0.000000000 23.972400665     0.000000000  0.000000000  0.041714637

  length of vectors
    15.110600471 12.195400238 23.972400665     0.066439793  0.082321625  0.041714637


 
 old parameters found on file WAVECAR:
  energy-cutoff  :      500.00
  volume of cell :     4400.27
      direct lattice vectors                 reciprocal lattice vectors
    15.110600471  0.000000000  0.000000000     0.066178707  0.005884289  0.000000000
    -1.080094632 12.147476386  0.000000000     0.000000000  0.082321625  0.000000000
     0.000000000  0.000000000 23.972400665     0.000000000  0.000000000  0.041714637

  length of vectors

 
 k-points in units of 2pi/SCALE and weight: Monkhorst Pack                          
   0.01654468  0.02205148  0.00000000       0.500
  -0.01654468  0.01910933  0.00000000       0.500
 
 k-points in reciprocal lattice and weights: Monkhorst Pack                          
   0.25000000  0.25000000  0.00000000       0.500
  -0.25000000  0.25000000  0.00000000       0.500
 
 position of ions in fractional coordinates (direct lattice) 
   0.08848000  0.32082999  0.03824000
   0.33847998  0.82083000  0.03824000
   0.58847999  0.32082999  0.03824000
   0.83848001  0.82083000  0.03824000
   0.07020001  0.83354995  0.04873000
   0.32019998  0.33355000  0.04873000
   0.57020004  0.83354995  0.04873000
   0.82020001  0.33355000  0.04873000
   0.23783000  0.06778000  0.05703000
   0.48783004  0.56778001  0.05703000
   0.73783001  0.06778000  0.05703000
   0.98782997  0.56778001  0.05703000
   0.21954999  0.58051001  0.06752000
   0.46955000  0.08051000  0.06752000
   0.71954999  0.58051001  0.06752000
   0.96955000  0.08051000  0.06752000
   0.10606851  0.98300184  0.17085249
   0.35665667  0.48357309  0.17113801
   0.60773463  0.98461198  0.17145369
   0.85583443  0.48282525  0.17271443
   0.08969299  0.49474503  0.18229956
   0.33901268  0.99484318  0.18214747
   0.58936145  0.49235788  0.18251752
   0.83863430  0.99563206  0.18261469
   0.00468540  0.23048309  0.19130594
   0.25363203  0.72996960  0.19124096
   0.50438952  0.22847408  0.19089797
   0.75722405  0.72992887  0.19092190
   0.23984233  0.24197139  0.20058472
   0.48856025  0.74277284  0.20009039
   0.74092084  0.24527846  0.20402878
   0.98884307  0.74072211  0.20186120
   0.12391189  0.64228204  0.31327206
   0.37097348  0.13918080  0.31263402
   0.62435641  0.64581825  0.30560775
   0.87399632  0.13936490  0.31399788
   0.10967434  0.16065743  0.31201575
   0.35867533  0.65913924  0.31269139
   0.60473984  0.15816234  0.31513082
   0.85944431  0.66293886  0.31778740
   0.02667498  0.88926262  0.32428978
   0.27561841  0.38858883  0.32545125
   0.52440757  0.88617419  0.32491693
   0.78887905  0.38637982  0.33229280
   0.01467695  0.40706658  0.33561929
   0.25864465  0.90648817  0.33604853
   0.50625802  0.39781238  0.33510149
   0.75856067  0.90824060  0.33620369
   0.69880516  0.54498372  0.42323411
   0.02440000  0.17254999  0.00000000
   0.27439999  0.67255002  0.00000000
   0.52439999  0.17254999  0.00000000
   0.77439999  0.67255002  0.00000000
   0.21455000  0.43156997  0.01581000
   0.46455001  0.93156996  0.01581000
   0.71455008  0.43156997  0.01581000
   0.96455004  0.93156996  0.01581000
   0.20673000  0.89092997  0.02490000
   0.45673000  0.39092998  0.02490000
   0.70672997  0.89092997  0.02490000
   0.95673004  0.39092998  0.02490000
   0.19748000  0.22610000  0.04418000
   0.44748002  0.72610003  0.04418000
   0.69748003  0.22610000  0.04418000
   0.94747999  0.72610003  0.04418000
   0.11054000  0.67523994  0.06158000
   0.36054002  0.17523999  0.06158000
   0.61053998  0.67523994  0.06158000
   0.86053999  0.17523999  0.06158000
   0.10129000  0.01041000  0.08086000
   0.35129000  0.51041000  0.08086000
   0.60128998  0.01041000  0.08086000
   0.85128994  0.51041000  0.08086000
   0.09348000  0.46976000  0.08995000
   0.34348000  0.96975995  0.08995000
   0.59348001  0.46976000  0.08995000
   0.84347996  0.96975995  0.08995000
   0.03362000  0.22878000  0.10576000
   0.28361999  0.72877998  0.10576000
   0.53361997  0.22878000  0.10576000
   0.78362002  0.72877998  0.10576000
   0.04512286  0.83313404  0.13357563
   0.29666638  0.33384328  0.13343791
   0.54649874  0.83373133  0.13353053
   0.79598576  0.33252940  0.13397564
   0.23147553  0.09330319  0.14608649
   0.48181065  0.59351217  0.14675712
   0.73181409  0.09384235  0.14691875
   0.98179030  0.59352043  0.14682041
   0.22593214  0.55242690  0.16048953
   0.47626142  0.05078036  0.16068335
   0.72521676  0.55207159  0.16065106
   0.97496022  0.05251160  0.16076972
   0.21491465  0.89003833  0.18080920
   0.46503526  0.38963168  0.18077503
   0.71506484  0.88909717  0.18090844
   0.96574387  0.39056985  0.18178263
   0.13040835  0.33500052  0.19173672
   0.37922178  0.83505257  0.19343550
   0.62879224  0.33448247  0.19344931
   0.87953120  0.83667875  0.19412253
   0.11785665  0.67180044  0.21424601
   0.36725800  0.16917314  0.21281254
   0.61860550  0.66991946  0.21428604
   0.86770819  0.17049236  0.21652539
   0.11567493  0.13013429  0.22360661
   0.36454332  0.63096375  0.22410079
   0.61554478  0.13113016  0.22549538
   0.86433929  0.63223978  0.22468650
   0.04716910  0.89385895  0.23980297
   0.29777546  0.39524374  0.24053284
   0.54769229  0.89311037  0.24020381
   0.79756140  0.39402895  0.24047081
   0.07148269  0.49271785  0.26850212
   0.31346586  0.99230496  0.26812619
   0.56447037  0.49134839  0.26967495
   0.81004554  0.99448204  0.26842041
   0.25150522  0.75040170  0.28259594
   0.49759996  0.25062254  0.28048635
   0.75047621  0.74905320  0.28297653
   0.00643268  0.25175603  0.28062643
   0.24538696  0.21410878  0.29080548
   0.49500024  0.71110961  0.29079540
   0.74274063  0.21947004  0.29728350
   0.99507444  0.71283094  0.29275284
   0.23944606  0.55423148  0.32770224
   0.48487171  0.05061830  0.32530432
   0.73400756  0.55123315  0.32715761
   0.98898411  0.05579296  0.32783578
   0.14642168  0.00345844  0.33095836
   0.39860509  0.50413541  0.33453395
   0.64245734  0.00019582  0.33512568
   0.90099349  0.50246445  0.32653564
   0.13777072  0.32026601  0.35158681
   0.38605421  0.81913001  0.35103988
   0.60580144  0.30111153  0.36161679
   0.88937584  0.83377690  0.34632106
   0.13210358  0.79987356  0.35616795
   0.37971549  0.29746817  0.35517078
   0.62953831  0.79347345  0.35483614
   0.89498404  0.29480101  0.35514289
   0.06783503  0.54526931  0.37449639
   0.31572084  0.04247737  0.37440397
   0.58020362  0.54156879  0.37848850
   0.81554791  0.04282536  0.37485017
   0.81293571  0.66228715  0.40615170
   0.76170043  0.41354330  0.41465566
   0.69564483  0.67309868  0.48141786
   0.83785384  0.71985151  0.43091959
   0.48704799  0.55484959  0.54382077
   0.67600425  0.60500462  0.50003566
   0.50876596  0.57258080  0.47198757
   0.70358923  0.42395017  0.51758621
   0.65512081  0.52166930  0.55901975
   0.36961250  0.40558953  0.52414359
   0.55802293  0.37840259  0.46791959
   0.40076210  0.40127509  0.45368950
   0.32722369  0.60268601  0.50780807
   0.35568101  0.58756262  0.43723313
   0.19179169  0.53997839  0.44383429
   0.20671794  0.45142637  0.50152684
   0.23997643  0.41386325  0.43500419
   0.54035299  0.36528946  0.53977041
   0.65231654  0.48304229  0.51737445
   0.48877927  0.50998445  0.50388444
   0.55900516  0.42689407  0.50707050
   0.39619882  0.45796391  0.48939456
   0.33005688  0.54111216  0.47433502
   0.23736363  0.48576858  0.46297909
 
 position of ions in cartesian coordinates  (Angst):
   0.99045921  3.89727473  0.91670460
   4.22806168  9.97101307  0.91670460
   8.54575920  3.89727473  0.91670460
  11.78336239  9.97101307  0.91670460
   0.16045142 10.12552833  1.16817511
   4.47814847  4.05179071  1.16817511
   7.71575212 10.12552833  1.16817511
  12.03344917  4.05179071  1.16817511
   3.52054525  0.82335597  1.36714601
   6.75814868  6.89709425  1.36714601
  11.07584571  0.82335597  1.36714601
  14.31344795  6.89709425  1.36714601
   2.69052649  7.05173159  1.61861647
   7.00822400  0.97799331  1.61861647
  10.24582672  7.05173159  1.61861647
  14.56352424  0.97799331  1.61861647
   0.54102391 11.94099169  4.09574436
   4.86699178  5.87419273  4.10258895
   8.11976106 11.96055082  4.11015654
  12.41067526  5.86510830  4.14037948
   0.82094342  6.00990355  4.37015820
   4.04816043 12.08483402  4.36651221
   8.37381230  5.98090569  4.37538308
  11.59689108 12.09441692  4.37771247
  -0.17814429  2.79978794  4.58606256
   3.04409599  8.86728844  4.58450485
   7.37485490  2.77538350  4.57628270
  10.65371784  8.86679375  4.57685619
   3.36280961  2.93934176  4.80849716
   6.58017371  9.02281554  4.79664702
  10.93083480  2.97951427  4.89105964
  14.14196260  8.99790433  4.83909760
   1.17865760  7.80210596  7.50988346
   5.45530362  1.69069552  7.49458802
   8.73685547  7.84506193  7.32615154
  13.05608189  1.69293181  7.52728301
   1.48371998  1.95158229  7.47976659
   4.70786685  8.00687835  7.49596322
   8.96715188  1.92127335  7.55444234
  12.27068282  8.05303419  7.61812683
  -0.55741285 10.80229673  7.77400457
   3.74504697  4.72037369  7.80184771
   6.96696121 10.76478007  7.78903888
  11.50310940  4.69353975  7.96585602
  -0.21789296  4.94483162  8.04560015
   2.92918290 11.01154364  8.05588999
   7.22018760  4.83241652  8.03318724
  10.48132146 11.03283121  8.05960945
   9.97073164  6.62017682 10.14593773
   0.18232835  2.09604693  0.00000000
   3.41993094  8.16978550  0.00000000
   7.73762846  2.09604693  0.00000000
  10.97523117  8.16978550  0.00000000
   2.77584291  5.24248600  0.37900365
   6.01344586 11.31622410  0.37900365
  10.33114434  5.24248600  0.37900365
  13.56874656 11.31622410  0.37900365
   2.16152573 10.82255077  0.59691280
   6.47922326  4.74881268  0.59691280
   9.71682548 10.82255077  0.59691280
  14.03452396  4.74881268  0.59691280
   2.73983193  2.74654436  1.05910064
   5.97743511  8.82028293  1.05910064
  10.29513263  2.74654436  1.05910064
  13.53273487  8.82028293  1.05910064
   0.94100273  8.20246124  1.47622036
   5.25870037  2.12872362  1.47622036
   8.49630260  8.20246124  1.47622036
  12.81400013  2.12872362  1.47622036
   1.51930892  0.12645522  1.93840825
   4.75691175  6.20019341  1.93840825
   9.07460880  0.12645522  1.93840825
  12.31221104  6.20019341  1.93840825
   0.90515363  5.70639848  2.15631746
   4.14275646 11.78013610  2.15631746
   8.46045399  5.70639848  2.15631746
  11.69805622 11.78013610  2.15631746
   0.26091433  2.77909971  2.53532100
   3.49851704  8.85283756  2.53532100
   7.81621408  2.77909971  2.53532100
  11.05381775  8.85283756  2.53532100
  -0.21803003 10.12047608  3.20212862
   4.12222488  4.05535337  3.19882702
   7.35741542 10.12773162  3.20104739
  11.66865956  4.03939297  3.21171783
   3.39695801  1.13339834  3.50204375
   6.63939890  7.20967501  3.51812059
  10.95679168  1.13994778  3.52199507
  14.19438266  7.20977544  3.51963777
   2.81729705  6.71059268  3.84731931
   7.14174851  0.61685328  3.85196574
  10.36217110  6.70627656  3.85119149
  14.67551686  0.63788342  3.85403604
   2.28616380 10.81171961  4.33443054
   6.60612287  4.73304162  4.33361146
   9.84475004 10.80028692  4.33680962
  14.17111742  4.74443800  4.35776598
   1.60871628  4.06941093  4.59638939
   4.82833293 10.14378137  4.63711339
   9.14015558  4.06311795  4.63744435
  12.38655241 10.16353531  4.65358311
   1.05527676  8.16067994  5.13599117
   5.36676595  2.05502668  5.10162736
   8.62392415  8.13783082  5.13695078
  12.92744385  2.07105186  5.19063346
   1.60736031  1.58080317  5.36038732
   4.82696796  7.66461727  5.37223387
   9.15961832  1.59290057  5.40566566
  12.37780690  7.68011782  5.38627468
  -0.25269875 10.85813044  5.74865280
   4.07266543  4.80121395  5.76614952
   7.31131570 10.84903713  5.75826203
  11.62604304  4.78645734  5.76466259
   0.54796453  5.98527841  6.43664032
   3.66487417 12.05400105  6.42762851
   7.99878351  5.96864302  6.46475594
  11.16613978 12.08044711  6.43468156
   2.98989011  9.11548693  6.77450321
   7.24833811  3.04443139  6.72393125
  10.53109776  9.09910612  6.78362679
  -0.17471865  3.05820046  6.72728929
   3.47668660  2.60088140  6.97130549
   6.71168521  8.63818724  6.97106391
  10.98620851  2.66600708  7.12659922
  14.26624748  8.65909700  7.01798836
   3.01955124  6.73251383  7.85580937
   7.27203012  0.61488460  7.79832558
  10.49591099  6.69609164  7.84275331
  14.88388213  0.67774364  7.85901067
   2.20878404  0.04201134  7.93386634
   5.47864828  6.12397297  8.01958199
   9.70770465  0.00237871  8.03376712
  13.07184356  6.10367509  7.82784323
   1.73588074  3.89042382  8.42837984
   4.94877297  9.95036240  8.41526858
   8.82879461  3.65774515  8.66882264
  12.53844502 10.12828526  8.30214721
   1.13222534  9.71644513  8.53820078
   5.41643531  3.61348751  8.51429629
   8.65567544  9.63869999  8.50627413
  13.20533321  3.58108829  8.51362777
   0.43608554  6.62364605  8.97757744
   4.72485190  0.51599283  8.97536203
   8.18227961  6.57869411  9.07327797
  12.27716327  0.52022007  8.98605847
  11.56861390  8.04511756  9.73643139
  11.06308498  5.02350749  9.94029170
   9.78460082  8.17645038 11.54074189
  11.88296693  8.74437926 10.33017699
   6.76029757  6.74002233 13.03668930
   9.56136797  7.34927934 11.98705511
   7.06931769  6.95541177 11.31467507
  10.17374943  5.14992466 12.40778402
   9.33581663  6.33696553 13.40104541
   5.14699168  4.92688926 12.56498022
   8.02335095  4.59663657 11.21715601
   5.62234091  4.87447974 10.87602652
   4.29358851  7.32111412 12.17337851
   4.73993040  7.13740300 10.48152772
   2.31485977  6.55937478 10.63977355
   2.63604906  5.48369118 12.02280233
   3.17917656  5.02739402 10.42809469
   7.77051096  4.43734512 12.93959260
   9.33516331  5.86774475 12.40270771
   6.83491681  6.19502411 12.07931964
   7.98581768  5.18568564 12.15569719
   5.49215778  5.56310580 11.73196241
   4.40290533  6.57314716 11.37094911
   3.06203097  5.90086240 11.09872025
 


--------------------------------------------------------------------------------------------------------


 k-point  1 :   0.2500 0.2500 0.0000  plane waves:  111683
 k-point  2 :  -0.2500 0.2500 0.0000  plane waves:  111725

 maximum and minimum number of plane-waves per node :     18644    18587

 maximum number of plane-waves:    111725
 maximum index in each direction: 
   IXMAX=   27   IYMAX=   21   IZMAX=   43
   IXMIN=  -27   IYMIN=  -22   IZMIN=  -43


 real space projection operators:
  total allocation   :      22554.15 KBytes
  max/ min on nodes  :       3766.19       3750.54


 parallel 3D FFT for wavefunctions:
    minimum data exchange during FFTs selected (reduces bandwidth)
 parallel 3D FFT for charge:
    minimum data exchange during FFTs selected (reduces bandwidth)


 total amount of memory used by VASP MPI-rank0   175278. kBytes
=======================================================================

   base      :      30000. kBytes
   nonlr-proj:      11917. kBytes
   fftplans  :       9317. kBytes
   grid      :      26149. kBytes
   one-center:        902. kBytes
   wavefun   :      96993. kBytes
 
     INWAV:  cpu time    8.7551: real time    8.9505
 Broyden mixing: mesh for mixing (old mesh)
   NGX = 55   NGY = 45   NGZ = 87
  (NGX  =168   NGY  =140   NGZ  =280)
  gives a total of 215325 points

 initial charge density was supplied:
 number of electron    1216.0000029 magnetization       0.0000000
 keeping initial charge density in first step


--------------------------------------------------------------------------------------------------------


 Maximum index for non-local projection operator          434
 Maximum index for augmentation-charges          476 (set IRDMAX)


--------------------------------------------------------------------------------------------------------


 First call to EWALD:  gamma=   0.108
 Maximum number of real-space cells 3x 4x 2
 Maximum number of reciprocal cells 3x 2x 4

    FEWALD:  cpu time    0.0057: real time    0.0057


--------------------------------------- Iteration      1(   1)  ---------------------------------------


    POTLOK:  cpu time    0.2195: real time    0.2237
    SETDIJ:  cpu time    0.0225: real time    0.0226
     EDDAV:  cpu time   27.5540: real time   27.6446
       DOS:  cpu time    0.0007: real time    0.0007
    CHARGE:  cpu time    1.2178: real time    1.2215
    MIXING:  cpu time    0.0070: real time    0.0072
    --------------------------------------------
      LOOP:  cpu time   29.0215: real time   29.1204

 eigenvalue-minimisations  :  6208
 total energy-change (2. order) :-0.1384909E+04  (-0.1353923E+00)
 number of electron    1216.0000028 magnetization       0.0000000
 augmentation part       74.1154101 magnetization       0.0000001

 Broyden mixing:
  rms(total) = 0.95089E-01    rms(broyden)= 0.95010E-01
  rms(prec ) = 0.96333E-01
  weight for this iteration     100.00

 Free energy of the ion-electron system (eV)
  ---------------------------------------------------
  alpha Z        PSCENC =      2171.30251861
  Ewald energy   TEWEN  =    387590.85747817
  -Hartree energ DENC   =   -484763.59946726
  -exchange      EXHF   =         0.00000000
  -V(xc)+E(xc)   XCENC  =      5343.57594115
  PAW double counting   =    130401.11683439  -129723.83505376
  entropy T*S    EENTRO =        -0.00000000
  eigenvalues    EBANDS =    -18784.56679612
  atomic energy  EATOM  =    106380.23911506
  Solvation  Ediel_sol  =         0.00000000
  ---------------------------------------------------
  free energy    TOTEN  =     -1384.90942976 eV

  energy without entropy =    -1384.90942976  energy(sigma->0) =    -1384.90942976


--------------------------------------------------------------------------------------------------------




--------------------------------------- Iteration      1(   2)  ---------------------------------------


    POTLOK:  cpu time    0.2137: real time    0.2166
    SETDIJ:  cpu time    0.0220: real time    0.0220
     EDDAV:  cpu time   27.3821: real time   27.4727
       DOS:  cpu time    0.0007: real time    0.0007
    CHARGE:  cpu time    1.2257: real time    1.2293
    MIXING:  cpu time    0.0062: real time    0.0063
    --------------------------------------------
      LOOP:  cpu time   28.8504: real time   28.9476

 eigenvalue-minimisations  :  6144
 total energy-change (2. order) :-0.1755589E+01  (-0.1205729E+00)
 number of electron    1216.0000029 magnetization      -0.0000000
 augmentation part       74.0390314 magnetization       0.0000002

 Broyden mixing:
  rms(total) = 0.41360E-01    rms(broyden)= 0.41244E-01
  rms(prec ) = 0.43530E-01
  weight for this iteration     100.00

 eigenvalues of (default mixing * dielectric matrix)
  average eigenvalue GAMMA=   0.7349
  0.7349

 Free energy of the ion-electron system (eV)
  ---------------------------------------------------
  alpha Z        PSCENC =      2171.30251861
  Ewald energy   TEWEN  =    387590.85747817
  -Hartree energ DENC   =   -484764.76911524
  -exchange      EXHF   =         0.00000000
  -V(xc)+E(xc)   XCENC  =      5343.67494213
  PAW double counting   =    130257.56531270  -129579.24214227
  entropy T*S    EENTRO =        -0.00000000
  eigenvalues    EBANDS =    -18786.29312762
  atomic energy  EATOM  =    106380.23911506
  Solvation  Ediel_sol  =         0.00000000
  ---------------------------------------------------
  free energy    TOTEN  =     -1386.66501847 eV

  energy without entropy =    -1386.66501847  energy(sigma->0) =    -1386.66501847


--------------------------------------------------------------------------------------------------------




--------------------------------------- Iteration      1(   3)  ---------------------------------------


    POTLOK:  cpu time    0.2120: real time    0.2136
    SETDIJ:  cpu time    0.0218: real time    0.0218
     EDDAV:  cpu time   29.3578: real time   29.4673
       DOS:  cpu time    0.0007: real time    0.0006
    CHARGE:  cpu time    1.2204: real time    1.2240
    MIXING:  cpu time    0.0061: real time    0.0061
    --------------------------------------------
      LOOP:  cpu time   30.8188: real time   30.9335

 eigenvalue-minimisations  :  6656
 total energy-change (2. order) :-0.9847741E-02  (-0.4434643E-02)
 number of electron    1216.0000029 magnetization      -0.0000000
 augmentation part       74.0715873 magnetization      -0.0000003

 Broyden mixing:
  rms(total) = 0.27719E-01    rms(broyden)= 0.27701E-01
  rms(prec ) = 0.28143E-01
  weight for this iteration     100.00

 eigenvalues of (default mixing * dielectric matrix)
  average eigenvalue GAMMA=   0.6911
  0.6911  0.6911

 Free energy of the ion-electron system (eV)
  ---------------------------------------------------
  alpha Z        PSCENC =      2171.30251861
  Ewald energy   TEWEN  =    387590.85747817
  -Hartree energ DENC   =   -484762.31182936
  -exchange      EXHF   =         0.00000000
  -V(xc)+E(xc)   XCENC  =      5343.47560339
  PAW double counting   =    130284.08209002  -129604.99905839
  entropy T*S    EENTRO =        -0.00000000
  eigenvalues    EBANDS =    -18789.32078372
  atomic energy  EATOM  =    106380.23911506
  Solvation  Ediel_sol  =         0.00000000
  ---------------------------------------------------
  free energy    TOTEN  =     -1386.67486621 eV

  energy without entropy =    -1386.67486621  energy(sigma->0) =    -1386.67486621


--------------------------------------------------------------------------------------------------------




--------------------------------------- Iteration      1(   4)  ---------------------------------------


    POTLOK:  cpu time    0.2128: real time    0.2147
    SETDIJ:  cpu time    0.0219: real time    0.0219
     EDDAV:  cpu time   25.0183: real time   25.1008
       DOS:  cpu time    0.0006: real time    0.0006
    CHARGE:  cpu time    1.2292: real time    1.2333
    MIXING:  cpu time    0.0065: real time    0.0065
    --------------------------------------------
      LOOP:  cpu time   26.4893: real time   26.5779

 eigenvalue-minimisations  :  5472
 total energy-change (2. order) :-0.4634389E-04  (-0.2271821E-03)
 number of electron    1216.0000029 magnetization      -0.0000000
 augmentation part       74.0671260 magnetization       0.0000000

 Broyden mixing:
  rms(total) = 0.22447E-01    rms(broyden)= 0.22446E-01
  rms(prec ) = 0.22754E-01
  weight for this iteration     100.00

 eigenvalues of (default mixing * dielectric matrix)
  average eigenvalue GAMMA=   0.6872
  0.7734  0.7734  0.5148

 Free energy of the ion-electron system (eV)
  ---------------------------------------------------
  alpha Z        PSCENC =      2171.30251861
  Ewald energy   TEWEN  =    387590.85747817
  -Hartree energ DENC   =   -484763.07906311
  -exchange      EXHF   =         0.00000000
  -V(xc)+E(xc)   XCENC  =      5343.54446830
  PAW double counting   =    130313.44489891  -129634.30957544
  entropy T*S    EENTRO =        -0.00000000
  eigenvalues    EBANDS =    -18788.67475306
  atomic energy  EATOM  =    106380.23911506
  Solvation  Ediel_sol  =         0.00000000
  ---------------------------------------------------
  free energy    TOTEN  =     -1386.67491255 eV

  energy without entropy =    -1386.67491255  energy(sigma->0) =    -1386.67491255


--------------------------------------------------------------------------------------------------------




--------------------------------------- Iteration      1(   5)  ---------------------------------------


    POTLOK:  cpu time    0.2129: real time    0.2147
    SETDIJ:  cpu time    0.0219: real time    0.0219
     EDDAV:  cpu time   29.1030: real time   29.2158
       DOS:  cpu time    0.0006: real time    0.0006
    CHARGE:  cpu time    1.2315: real time    1.2352
    MIXING:  cpu time    0.0066: real time    0.0066
    --------------------------------------------
      LOOP:  cpu time   30.5765: real time   30.6948

 eigenvalue-minimisations  :  6656
 total energy-change (2. order) :-0.9057228E-05  (-0.2183928E-04)
 number of electron    1216.0000029 magnetization      -0.0000000
 augmentation part       74.0729369 magnetization       0.0000001

 Broyden mixing:
  rms(total) = 0.18812E-01    rms(broyden)= 0.18812E-01
  rms(prec ) = 0.19072E-01
  weight for this iteration     100.00

 eigenvalues of (default mixing * dielectric matrix)
  average eigenvalue GAMMA=   0.7250
  0.9029  0.9029  0.5472  0.5472

 Free energy of the ion-electron system (eV)
  ---------------------------------------------------
  alpha Z        PSCENC =      2171.30251861
  Ewald energy   TEWEN  =    387590.85747817
  -Hartree energ DENC   =   -484763.13216095
  -exchange      EXHF   =         0.00000000
  -V(xc)+E(xc)   XCENC  =      5343.54857778
  PAW double counting   =    130331.65072939  -129652.47794826
  entropy T*S    EENTRO =        -0.00000000
  eigenvalues    EBANDS =    -18788.66323141
  atomic energy  EATOM  =    106380.23911506
  Solvation  Ediel_sol  =         0.00000000
  ---------------------------------------------------
  free energy    TOTEN  =     -1386.67492161 eV

  energy without entropy =    -1386.67492161  energy(sigma->0) =    -1386.67492161


--------------------------------------------------------------------------------------------------------




--------------------------------------- Iteration      1(   6)  ---------------------------------------


    POTLOK:  cpu time    0.2134: real time    0.2141
    SETDIJ:  cpu time    0.0218: real time    0.0219
     EDDAV:  cpu time   29.6515: real time   29.7825
       DOS:  cpu time    0.0006: real time    0.0006
    CHARGE:  cpu time    1.2306: real time    1.2342
    MIXING:  cpu time    0.0071: real time    0.0072
    --------------------------------------------
      LOOP:  cpu time   31.1250: real time   31.2605

 eigenvalue-minimisations  :  6784
 total energy-change (2. order) :-0.1050044E-04  (-0.2529243E-05)
 number of electron    1216.0000029 magnetization      -0.0000000
 augmentation part       74.0745561 magnetization       0.0000000

 Broyden mixing:
  rms(total) = 0.16291E-01    rms(broyden)= 0.16291E-01
  rms(prec ) = 0.16526E-01
  weight for this iteration     100.00

 eigenvalues of (default mixing * dielectric matrix)
  average eigenvalue GAMMA=   0.7964
  1.1253  1.1253  0.5243  0.6037  0.6037

 Free energy of the ion-electron system (eV)
  ---------------------------------------------------
  alpha Z        PSCENC =      2171.30251861
  Ewald energy   TEWEN  =    387590.85747817
  -Hartree energ DENC   =   -484763.26734240
  -exchange      EXHF   =         0.00000000
  -V(xc)+E(xc)   XCENC  =      5343.55636052
  PAW double counting   =    130345.84296387  -129666.65709757
  entropy T*S    EENTRO =        -0.00000000
  eigenvalues    EBANDS =    -18788.54892837
  atomic energy  EATOM  =    106380.23911506
  Solvation  Ediel_sol  =         0.00000000
  ---------------------------------------------------
  free energy    TOTEN  =     -1386.67493211 eV

  energy without entropy =    -1386.67493211  energy(sigma->0) =    -1386.67493211


--------------------------------------------------------------------------------------------------------




--------------------------------------- Iteration      1(   7)  ---------------------------------------


    POTLOK:  cpu time    0.2140: real time    0.2148
    SETDIJ:  cpu time    0.0218: real time    0.0219
     EDDAV:  cpu time   29.1705: real time   29.2677
       DOS:  cpu time    0.0006: real time    0.0006
    CHARGE:  cpu time    1.2254: real time    1.2290
    MIXING:  cpu time    0.0074: real time    0.0074
    --------------------------------------------
      LOOP:  cpu time   30.6398: real time   30.7414

 eigenvalue-minimisations  :  6656
 total energy-change (2. order) :-0.6330345E-05  (-0.2388125E-05)
 number of electron    1216.0000029 magnetization      -0.0000000
 augmentation part       74.0758956 magnetization       0.0000001

 Broyden mixing:
  rms(total) = 0.13037E-01    rms(broyden)= 0.13037E-01
  rms(prec ) = 0.13223E-01
  weight for this iteration     100.00

 eigenvalues of (default mixing * dielectric matrix)
  average eigenvalue GAMMA=   0.8598
  1.3445  1.3445  0.6855  0.6855  0.5495  0.5495

 Free energy of the ion-electron system (eV)
  ---------------------------------------------------
  alpha Z        PSCENC =      2171.30251861
  Ewald energy   TEWEN  =    387590.85747817
  -Hartree energ DENC   =   -484763.31666680
  -exchange      EXHF   =         0.00000000
  -V(xc)+E(xc)   XCENC  =      5343.56156193
  PAW double counting   =    130363.20438850  -129684.00536841
  entropy T*S    EENTRO =        -0.00000000
  eigenvalues    EBANDS =    -18788.51796550
  atomic energy  EATOM  =    106380.23911506
  Solvation  Ediel_sol  =         0.00000000
  ---------------------------------------------------
  free energy    TOTEN  =     -1386.67493844 eV

  energy without entropy =    -1386.67493844  energy(sigma->0) =    -1386.67493844


--------------------------------------------------------------------------------------------------------




--------------------------------------- Iteration      1(   8)  ---------------------------------------


    POTLOK:  cpu time    0.2134: real time    0.2156
    SETDIJ:  cpu time    0.0219: real time    0.0220
     EDDAV:  cpu time   27.4855: real time   27.5761
       DOS:  cpu time    0.0006: real time    0.0006
    CHARGE:  cpu time    1.2262: real time    1.2299
    MIXING:  cpu time    0.0077: real time    0.0077
    --------------------------------------------
      LOOP:  cpu time   28.9552: real time   29.0519

 eigenvalue-minimisations  :  6176
 total energy-change (2. order) :-0.5124806E-05  (-0.1834205E-05)
 number of electron    1216.0000029 magnetization      -0.0000000
 augmentation part       74.0773256 magnetization       0.0000001

 Broyden mixing:
  rms(total) = 0.10624E-01    rms(broyden)= 0.10624E-01
  rms(prec ) = 0.10768E-01
  weight for this iteration     100.00

 eigenvalues of (default mixing * dielectric matrix)
  average eigenvalue GAMMA=   0.9119
  1.5749  1.5749  0.7663  0.7663  0.5340  0.5837  0.5837

 Free energy of the ion-electron system (eV)
  ---------------------------------------------------
  alpha Z        PSCENC =      2171.30251861
  Ewald energy   TEWEN  =    387590.85747817
  -Hartree energ DENC   =   -484763.35494883
  -exchange      EXHF   =         0.00000000
  -V(xc)+E(xc)   XCENC  =      5343.56484810
  PAW double counting   =    130376.24008109  -129697.03090547
  entropy T*S    EENTRO =        -0.00000000
  eigenvalues    EBANDS =    -18788.49313029
  atomic energy  EATOM  =    106380.23911506
  Solvation  Ediel_sol  =         0.00000000
  ---------------------------------------------------
  free energy    TOTEN  =     -1386.67494356 eV

  energy without entropy =    -1386.67494356  energy(sigma->0) =    -1386.67494356


--------------------------------------------------------------------------------------------------------




--------------------------------------- Iteration      1(   9)  ---------------------------------------


    POTLOK:  cpu time    0.2122: real time    0.2147
    SETDIJ:  cpu time    0.0219: real time    0.0220
     EDDAV:  cpu time   20.9359: real time   21.0046
       DOS:  cpu time    0.0010: real time    0.0006
    CHARGE:  cpu time    1.2248: real time    1.2300
    MIXING:  cpu time    0.0079: real time    0.0079
    --------------------------------------------
      LOOP:  cpu time   22.4037: real time   22.4798

 eigenvalue-minimisations  :  4320
 total energy-change (2. order) :-0.4560337E-05  (-0.5175449E-06)
 number of electron    1216.0000029 magnetization       0.0000000
 augmentation part       74.0783425 magnetization       0.0000001

 Broyden mixing:
  rms(total) = 0.90560E-02    rms(broyden)= 0.90560E-02
  rms(prec ) = 0.91810E-02
  weight for this iteration     100.00

 eigenvalues of (default mixing * dielectric matrix)
  average eigenvalue GAMMA=   1.0388
  2.0220  2.0220  0.9041  0.9041  0.6550  0.6550  0.5741  0.5741

 Free energy of the ion-electron system (eV)
  ---------------------------------------------------
  alpha Z        PSCENC =      2171.30251861
  Ewald energy   TEWEN  =    387590.85747817
  -Hartree energ DENC   =   -484763.37595600
  -exchange      EXHF   =         0.00000000
  -V(xc)+E(xc)   XCENC  =      5343.56632222
  PAW double counting   =    130384.74457286  -129705.53253285
  entropy T*S    EENTRO =        -0.00000000
  eigenvalues    EBANDS =    -18788.47646619
  atomic energy  EATOM  =    106380.23911506
  Solvation  Ediel_sol  =         0.00000000
  ---------------------------------------------------
  free energy    TOTEN  =     -1386.67494813 eV

  energy without entropy =    -1386.67494813  energy(sigma->0) =    -1386.67494813


--------------------------------------------------------------------------------------------------------




--------------------------------------- Iteration      1(  10)  ---------------------------------------


    POTLOK:  cpu time    0.2128: real time    0.2135
    SETDIJ:  cpu time    0.0219: real time    0.0220
     EDDAV:  cpu time   27.9254: real time   28.0159
       DOS:  cpu time    0.0006: real time    0.0005
    CHARGE:  cpu time    1.2225: real time    1.2261
    MIXING:  cpu time    0.0083: real time    0.0083
    --------------------------------------------
      LOOP:  cpu time   29.3914: real time   29.4863

 eigenvalue-minimisations  :  6304
 total energy-change (2. order) :-0.5337439E-05  (-0.1905947E-05)
 number of electron    1216.0000029 magnetization       0.0000000
 augmentation part       74.0795106 magnetization       0.0000000

 Broyden mixing:
[...]
   0.125E+02 -.444E+02 -.240E+03   -.129E+02 0.471E+02 0.245E+03   0.365E+00 -.270E+01 -.468E+01   0.674E-04 -.323E-04 0.270E-04
   -.566E+01 -.458E+02 -.258E+03   0.511E+01 0.451E+02 0.260E+03   0.554E+00 0.656E+00 -.160E+01   -.399E-04 -.130E-03 0.224E-03
   0.609E+01 -.628E+02 -.209E+03   -.499E+01 0.666E+02 0.206E+03   -.110E+01 -.377E+01 0.379E+01   0.248E-04 -.342E-04 0.547E-04
   -.576E+02 0.502E+02 -.231E+03   0.617E+02 -.538E+02 0.231E+03   -.410E+01 0.354E+01 -.676E-01   -.119E-03 0.103E-03 0.107E-03
   -.158E+02 -.253E+02 -.234E+03   0.158E+02 0.275E+02 0.238E+03   -.338E-01 -.221E+01 -.489E+01   0.905E-06 -.728E-04 -.984E-04
   0.315E+02 0.513E+02 -.246E+03   -.332E+02 -.545E+02 0.250E+03   0.169E+01 0.317E+01 -.408E+01   0.279E-04 0.279E-05 0.191E-04
   0.365E+01 0.648E+02 -.208E+03   -.347E+01 -.678E+02 0.203E+03   -.188E+00 0.299E+01 0.442E+01   0.186E-04 0.237E-04 0.953E-04
   0.910E+01 0.544E+02 -.214E+03   -.854E+01 -.578E+02 0.209E+03   -.577E+00 0.342E+01 0.410E+01   0.437E-05 0.118E-04 0.244E-04
   0.223E+02 -.593E+02 -.252E+03   -.228E+02 0.631E+02 0.256E+03   0.535E+00 -.374E+01 -.396E+01   0.143E-04 -.296E-04 0.893E-05
   -.684E+00 -.506E+02 -.217E+03   0.233E+01 0.533E+02 0.213E+03   -.167E+01 -.271E+01 0.421E+01   0.557E-05 -.382E-04 0.721E-05
   0.469E+02 -.343E+02 -.245E+03   -.508E+02 0.376E+02 0.242E+03   0.396E+01 -.332E+01 0.242E+01   0.454E-06 -.278E-04 0.712E-06
   0.434E+02 0.266E+02 -.262E+03   -.456E+02 -.287E+02 0.267E+03   0.219E+01 0.208E+01 -.459E+01   -.174E-05 -.634E-05 -.206E-05
   0.170E+02 0.505E+02 -.239E+03   -.167E+02 -.547E+02 0.236E+03   -.362E+00 0.418E+01 0.292E+01   -.623E-05 0.552E-05 0.241E-05
   0.976E+01 0.644E+02 -.232E+03   -.108E+02 -.681E+02 0.236E+03   0.102E+01 0.370E+01 -.382E+01   0.647E-04 0.508E-04 0.412E-04
   -.869E+02 0.723E+01 -.929E+03   0.875E+02 -.509E+01 0.926E+03   -.545E+00 -.213E+01 0.283E+01   -.183E-04 0.164E-03 0.476E-03
   0.413E+02 -.736E+02 -.906E+03   -.413E+02 0.734E+02 0.906E+03   -.156E-01 0.200E+00 0.999E-01   0.237E-03 -.464E-04 0.219E-03
   0.954E+01 0.131E+03 -.899E+03   -.101E+02 -.131E+03 0.900E+03   0.597E+00 0.103E+00 -.626E+00   0.391E-03 0.170E-03 0.419E-03
   0.693E+02 0.796E+02 -.921E+03   -.692E+02 -.793E+02 0.921E+03   -.879E-01 -.303E+00 -.139E+00   0.781E-04 -.161E-04 0.890E-04
   0.715E+02 -.103E+03 -.944E+03   -.712E+02 0.103E+03 0.945E+03   -.264E+00 0.264E+00 -.439E+00   0.329E-04 -.789E-04 0.288E-04
   0.128E+03 0.212E+02 -.981E+03   -.128E+03 -.196E+02 0.981E+03   0.661E+00 -.157E+01 -.271E+00   -.547E-05 -.530E-04 0.447E-05
 -----------------------------------------------------------------------------------------------
   0.172E+02 -.681E+01 0.718E+02   -.114E-12 0.739E-12 0.682E-11   -.173E+02 0.658E+01 -.721E+02   0.194E-02 0.866E-03 0.183E-01
 
 
 POSITION                                       TOTAL-FORCE (eV/Angst)
 -----------------------------------------------------------------------------------
      0.99046      3.89727      0.91670        -1.484067     -1.876086     -0.694417
      4.22806      9.97101      0.91670        -1.472840     -1.880719     -0.756264
      8.54576      3.89727      0.91670        -1.350714     -1.904115     -0.745291
     11.78336      9.97101      0.91670        -1.367527     -1.838326     -0.768651
      0.16045     10.12553      1.16818        -0.232658      1.672061      0.322249
      4.47815      4.05179      1.16818        -0.168370      1.718413      0.184035
      7.71575     10.12553      1.16818        -0.100464      1.764591      0.211759
     12.03345      4.05179      1.16818        -0.166311      1.784864      0.511980
      3.52055      0.82336      1.36715        -0.832411     -0.864561      1.537549
      6.75815      6.89709      1.36715        -0.794047     -0.904748      1.584135
     11.07585      0.82336      1.36715        -0.786286     -0.801887      1.718131
     14.31345      6.89709      1.36715        -0.943402     -0.953483      1.738477
      2.69053      7.05173      1.61862         1.508654      0.465395     -2.500012
      7.00822      0.97799      1.61862         1.604952      0.457665     -2.497217
     10.24583      7.05173      1.61862         1.680322      0.361491     -2.437507
     14.56352      0.97799      1.61862         1.514365      0.521293     -2.458653
      0.54102     11.94099      4.09574        -0.007082      0.002131      0.006603
      4.86699      5.87419      4.10259         0.000197      0.000306     -0.000445
      8.11976     11.96055      4.11016         0.006109     -0.001102     -0.001359
     12.41068      5.86511      4.14038         0.002955     -0.008612      0.005603
      0.82094      6.00990      4.37016        -0.001327     -0.003705     -0.002958
      4.04816     12.08483      4.36651         0.002139     -0.000169      0.002791
      8.37381      5.98091      4.37538         0.001585      0.002747     -0.001414
     11.59689     12.09442      4.37771         0.003943      0.004476      0.001776
     -0.17814      2.79979      4.58606         0.004642     -0.009170     -0.001158
      3.04410      8.86729      4.58450         0.002584      0.002752      0.002572
      7.37485      2.77538      4.57628         0.000084      0.004555      0.002305
     10.65372      8.86679      4.57686         0.004740      0.005645      0.004109
      3.36281      2.93934      4.80850        -0.004023     -0.002875      0.002684
      6.58017      9.02282      4.79665         0.003569      0.000746      0.002622
     10.93083      2.97951      4.89106        -0.000549     -0.004243      0.001839
     14.14196      8.99790      4.83910        -0.001449      0.006576      0.001097
      1.17866      7.80211      7.50988        -0.000759      0.008020     -0.002285
      5.45530      1.69070      7.49459         0.000690      0.001620      0.007243
      8.73686      7.84506      7.32615         0.003763     -0.001595      0.001706
     13.05608      1.69293      7.52728         0.001684     -0.000143     -0.005209
      1.48372      1.95158      7.47977         0.002119     -0.008219      0.002134
      4.70787      8.00688      7.49596         0.001537      0.005481      0.008732
      8.96715      1.92127      7.55444        -0.002943     -0.012048      0.000328
     12.27068      8.05303      7.61813        -0.000224      0.000535     -0.002413
     -0.55741     10.80230      7.77400        -0.007875      0.001617      0.008799
      3.74505      4.72037      7.80185         0.005070     -0.003942      0.006738
      6.96696     10.76478      7.78904        -0.000353     -0.004259      0.001509
     11.50311      4.69354      7.96586        -0.009078     -0.003209      0.004712
     -0.21789      4.94483      8.04560         0.000163      0.002291      0.000714
      2.92918     11.01154      8.05589         0.001625      0.007000      0.006803
      7.22019      4.83242      8.03319         0.003029     -0.004134      0.004169
     10.48132     11.03283      8.05961         0.009694      0.005411      0.007677
      9.97073      6.62018     10.14594        -0.005780      0.030678     -0.003676
      0.18233      2.09605      0.00000         0.271508      0.967536      1.268206
      3.41993      8.16979      0.00000         0.282966      0.991990      1.273018
      7.73763      2.09605      0.00000         0.251362      0.966942      1.282094
     10.97523      8.16979      0.00000         0.252288      0.998213      1.285165
      2.77584      5.24249      0.37900        -0.011319     -0.923360      0.587038
      6.01345     11.31622      0.37900        -0.041670     -0.932396      0.587689
     10.33114      5.24249      0.37900        -0.093728     -0.917250      0.575787
     13.56875     11.31622      0.37900        -0.043107     -0.932879      0.572297
      2.16153     10.82255      0.59691         0.401672      1.200999     -0.186129
      6.47922      4.74881      0.59691         0.384095      1.217631     -0.192354
      9.71683     10.82255      0.59691         0.359299      1.178430     -0.193251
     14.03452      4.74881      0.59691         0.409058      1.184351     -0.211323
      2.73983      2.74654      1.05910         1.182366     -1.030090     -0.430019
      5.97744      8.82028      1.05910         1.159552     -1.043144     -0.407190
     10.29513      2.74654      1.05910         1.123617     -1.034045     -0.461495
     13.53273      8.82028      1.05910         1.137950     -1.013010     -0.454640
      0.94100      8.20246      1.47622        -1.107873     -0.295025     -0.900246
      5.25870      2.12872      1.47622        -1.125279     -0.317650     -0.896925
      8.49630      8.20246      1.47622        -1.179584     -0.305364     -0.900198
     12.81400      2.12872      1.47622        -1.132497     -0.339839     -0.913977
      1.51931      0.12646      1.93841         0.353081     -0.074702      0.209641
      4.75691      6.20019      1.93841         0.436723     -0.005657      0.229348
      9.07461      0.12646      1.93841         0.413895     -0.038211      0.274191
     12.31221      6.20019      1.93841         0.365442     -0.072417      0.310724
      0.90515      5.70640      2.15632        -0.353725      0.340800      0.089954
      4.14276     11.78014      2.15632        -0.349872      0.313527      0.147215
      8.46045      5.70640      2.15632        -0.407548      0.316018      0.202770
     11.69806     11.78014      2.15632        -0.396474      0.310260      0.179397
      0.26091      2.77910      2.53532         0.221941      0.392018      0.452291
      3.49852      8.85284      2.53532         0.244411      0.433754      0.574966
      7.81621      2.77910      2.53532         0.211864      0.375036      0.453491
     11.05382      8.85284      2.53532         0.278914      0.428508      0.503536
     -0.21803     10.12048      3.20213         0.004683      0.001819     -0.001101
      4.12222      4.05535      3.19883        -0.002209     -0.002693     -0.002139
      7.35742     10.12773      3.20105        -0.007451      0.000938      0.003611
     11.66866      4.03939      3.21172         0.000397     -0.003796      0.004922
      3.39696      1.13340      3.50204        -0.005847     -0.000769      0.013573
      6.63940      7.20968      3.51812        -0.002417     -0.005461      0.004506
     10.95679      1.13995      3.52200        -0.003195     -0.000683      0.019755
     14.19438      7.20978      3.51964        -0.000188     -0.005414     -0.008964
      2.81730      6.71059      3.84732         0.005114      0.002651      0.002756
      7.14175      0.61685      3.85197         0.002319      0.003487      0.004163
     10.36217      6.70628      3.85119        -0.000009     -0.002324     -0.002659
     14.67552      0.63788      3.85404         0.008275      0.007413     -0.006300
      2.28616     10.81172      4.33443         0.004581     -0.009950     -0.002736
      6.60612      4.73304      4.33361        -0.003421      0.004096      0.008347
      9.84475     10.80029      4.33681        -0.005523     -0.007483      0.008380
     14.17112      4.74444      4.35777        -0.013137      0.023025     -0.011506
      1.60872      4.06941      4.59639         0.006963      0.006281      0.002153
      4.82833     10.14378      4.63711         0.009416     -0.004711      0.002792
      9.14016      4.06312      4.63744         0.000082      0.001957     -0.003636
     12.38655     10.16354      4.65358        -0.006948      0.000877     -0.001211
      1.05528      8.16068      5.13599         0.003411      0.004149      0.001480
      5.36677      2.05503      5.10163        -0.005602     -0.007319     -0.000795
      8.62392      8.13783      5.13695         0.001189      0.001865      0.003910
     12.92744      2.07105      5.19063        -0.003353     -0.001186     -0.009360
      1.60736      1.58080      5.36039         0.006333      0.006775      0.000637
      4.82697      7.66462      5.37223        -0.006878     -0.001034      0.006798
      9.15962      1.59290      5.40567        -0.002949      0.001144      0.001206
     12.37781      7.68012      5.38627         0.002963     -0.005658     -0.009421
     -0.25270     10.85813      5.74865         0.009371      0.011128     -0.006204
      4.07267      4.80121      5.76615         0.001543      0.002818      0.001683
      7.31132     10.84904      5.75826        -0.009827     -0.015839      0.018936
     11.62604      4.78646      5.76466         0.000689      0.012348     -0.006783
      0.54796      5.98528      6.43664        -0.003482     -0.000716     -0.000402
      3.66487     12.05400      6.42763         0.003044     -0.004945     -0.007239
      7.99878      5.96864      6.46476         0.004546      0.000663     -0.002685
     11.16614     12.08045      6.43468        -0.001663     -0.011835      0.006804
      2.98989      9.11549      6.77450         0.002007     -0.002390      0.001373
      7.24834      3.04443      6.72393         0.005880      0.005920      0.000768
     10.53110      9.09911      6.78363         0.005946     -0.011216      0.002785
     -0.17472      3.05820      6.72729        -0.012092      0.015919      0.014546
      3.47669      2.60088      6.97131         0.006604      0.000504     -0.003019
      6.71169      8.63819      6.97106        -0.001514     -0.002025      0.000128
     10.98621      2.66601      7.12660         0.000560     -0.001763     -0.003679
     14.26625      8.65910      7.01799         0.004105      0.003238     -0.004395
      3.01955      6.73251      7.85581         0.003555      0.005176      0.001427
      7.27203      0.61488      7.79833         0.004479      0.008450     -0.021130
     10.49591      6.69609      7.84275        -0.000685      0.001098     -0.000644
     14.88388      0.67774      7.85901         0.000605      0.001115      0.003284
      2.20878      0.04201      7.93387         0.005022     -0.002769     -0.008082
      5.47865      6.12397      8.01958        -0.000841     -0.003421      0.003263
      9.70770      0.00238      8.03377        -0.000970      0.002155     -0.000018
     13.07184      6.10368      7.82784        -0.001294     -0.013943     -0.008188
      1.73588      3.89042      8.42838        -0.001798      0.005876      0.002475
      4.94877      9.95036      8.41527        -0.008103     -0.015420     -0.018328
      8.82879      3.65775      8.66882        -0.001849      0.000423     -0.000399
     12.53845     10.12829      8.30215        -0.001757     -0.001195      0.011902
      1.13223      9.71645      8.53820        -0.001401     -0.004007      0.000291
      5.41644      3.61349      8.51430         0.008617      0.002749     -0.028116
      8.65568      9.63870      8.50627         0.004726     -0.002126     -0.003627
     13.20533      3.58109      8.51363         0.002586      0.007074      0.001529
      0.43609      6.62365      8.97758        -0.000512      0.002780     -0.005964
      4.72485      0.51599      8.97536        -0.004140     -0.000628     -0.003475
      8.18228      6.57869      9.07328         0.004553      0.002749     -0.007314
     12.27716      0.52022      8.98606         0.003512      0.013727      0.006973
     11.56861      8.04512      9.73643        -0.009667     -0.006932     -0.025756
     11.06308      5.02351      9.94029         0.001173      0.010209      0.003505
      9.78460      8.17645     11.54074        -0.013406     -0.003171      0.018959
     11.88297      8.74438     10.33018         0.016882      0.017064      0.010748
      6.76030      6.74002     13.03669        -0.000807     -0.012611     -0.004675
      9.56137      7.34928     11.98706         0.000860     -0.031140      0.005276
      7.06932      6.95541     11.31468        -0.003613     -0.003622     -0.005488
     10.17375      5.14992     12.40778        -0.004768     -0.011993      0.009015
      9.33582      6.33697     13.40105        -0.002258     -0.003462     -0.009826
      5.14699      4.92689     12.56498        -0.004888     -0.005126      0.012488
      8.02335      4.59664     11.21716        -0.014575      0.007706      0.011058
      5.62234      4.87448     10.87603        -0.014972     -0.008572      0.007716
      4.29359      7.32111     12.17338        -0.010193     -0.006965      0.013357
      4.73993      7.13740     10.48153        -0.016185     -0.004358      0.007926
      2.31486      6.55937     10.63977        -0.010852     -0.005263      0.009733
      2.63605      5.48369     12.02280        -0.011355     -0.011419      0.008824
      3.17918      5.02739     10.42809        -0.009799     -0.008732      0.005678
      7.77051      4.43735     12.93959         0.001281     -0.007637      0.016759
      9.33516      5.86774     12.40271        -0.014252      0.008897      0.013955
      6.83492      6.19502     12.07932         0.003284     -0.008353      0.017175
      7.98582      5.18569     12.15570        -0.001415      0.017300     -0.043846
      5.49216      5.56311     11.73196        -0.005992     -0.011176     -0.001395
      4.40291      6.57315     11.37095        -0.007021     -0.010909      0.008465
      3.06203      5.90086     11.09872        -0.013085     -0.007389      0.006990
 -----------------------------------------------------------------------------------
    total drift:                               -0.094179     -0.231879     -0.262646


--------------------------------------------------------------------------------------------------------



  FREE ENERGIE OF THE ION-ELECTRON SYSTEM (eV)
  ---------------------------------------------------
  free  energy   TOTEN  =     -1406.26183778 eV

  energy  without entropy=    -1406.26183778  energy(sigma->0) =    -1406.26183778
 


--------------------------------------------------------------------------------------------------------


    POTLOK:  cpu time    0.2688: real time    0.2697


--------------------------------------------------------------------------------------------------------


 Dimer: Init Mode:
 Dimer: MODECAR found
 Dimer: -----------------
 Dimer: Itr    1 Rot    0

 Dimer: Central Point
 Dimer: F0      0.148600

 Dimer: Projection
 Dimer: N*F0 -2.283318888004295E-002
 Dimer: F0sq  2.208194996445204E-002
 Dimer: Feffsq   5.213545144317169E-004
 
 stress matrix after NEB project (eV)
    -50.88012    -23.80976     -1.40937
    -23.80976    -71.26473      0.52376
     -1.40937      0.52376     -8.33669
  FORCES: max atom, RMS     0.047157    0.011431
  FORCE total and by dimension    0.148600    0.043846
  Stress total and by dimension   94.208698   71.264728
 OPT: skip step - force has converged
 writing wavefunctions
     LOOP+:  cpu time  400.5340: real time  402.6072
    4ORBIT:  cpu time    0.0000: real time    0.0000

 total amount of memory used by VASP MPI-rank0   175278. kBytes
=======================================================================

   base      :      30000. kBytes
   nonlr-proj:      11917. kBytes
   fftplans  :       9317. kBytes
   grid      :      26149. kBytes
   one-center:        902. kBytes
   wavefun   :      96993. kBytes
 
  
  
 General timing and accounting informations for this job:
 ========================================================
  
                  Total CPU time used (sec):      429.996
                            User time (sec):      405.473
                          System time (sec):       24.523
                         Elapsed time (sec):      432.651
  
                   Maximum memory used (kb):      443420.
                   Average memory used (kb):           0.
  
                          Minor page faults:        95686
                          Major page faults:            0
                 Voluntary context switches:         1131
