 vasp.5.4.4.18Apr17-6-g9f103f2a35 (build Mar 06 2019 14:20:02) complex          
  
 executed on             LinuxIFC date 2021.11.02  09:26:18
 running on  128 total cores
 distrk:  each k-point on  128 cores,    1 groups
 distr:  one band on NCORES_PER_BAND=  16 cores,    8 groups


--------------------------------------------------------------------------------------------------------


 INCAR:
 POTCAR:    PAW_PBE Zr_sv 04Jan2005               
 POTCAR:    PAW_PBE O 08Apr2002                   
 POTCAR:    PAW_PBE H 15Jun2001                   
 POTCAR:    PAW_PBE C 08Apr2002                   
 POTCAR:    PAW_PBE Zr_sv 04Jan2005               
   VRHFIN =Zr: 4s4p5s4d                                                         
   LEXCH  = PE                                                                  
   EATOM  =  1284.2219 eV,   94.3876 Ry                                         
                                                                                
   TITEL  = PAW_PBE Zr_sv 04Jan2005                                             
   LULTRA =        F    use ultrasoft PP ?                                      
   IUNSCR =        1    unscreen: 0-lin 1-nonlin 2-no                           
   RPACOR =    2.200    partial core radius                                     
   POMASS =   91.224; ZVAL   =   12.000    mass and valenz                      
   RCORE  =    2.500    outmost cutoff radius                                   
   RWIGS  =    3.070; RWIGS  =    1.625    wigner-seitz radius (au A)           
   ENMAX  =  229.898; ENMIN  =  172.424 eV                                      
   ICORE  =        3    local potential                                         
   LCOR   =        T    correct aug charges                                     
   LPAW   =        T    paw PP                                                  
   EAUG   =  461.257                                                            
   DEXC   =    0.000                                                            
   RMAX   =    2.561    core radius for proj-oper                               
   RAUG   =    1.300    factor for augmentation sphere                          
   RDEP   =    2.597    radius for radial grids                                 
   RDEPT  =    2.007    core radius for aug-charge                              
                                                                                
   Atomic configuration                                                         
   11 entries                                                                   
     n  l   j            E        occ.                                          
     1  0  0.50    -17820.0161   2.0000                                         
     2  0  0.50     -2467.0882   2.0000                                         
     2  1  1.50     -2199.6095   6.0000                                         
     3  0  0.50      -402.4863   2.0000                                         
     3  1  1.50      -315.3675   6.0000                                         
     3  2  2.50      -172.4472  10.0000                                         
     4  0  0.50       -52.4146   2.0000                                         
     5  0  0.50        -3.8421   1.0000                                         
     4  1  1.50       -30.5054   6.0000                                         
     4  2  2.50        -2.3341   3.0000                                         
     4  3  2.50        -1.3606   0.0000                                         
   Description                                                                  
     l       E           TYP  RCUT    TYP  RCUT                                 
     0    -52.4145962     23  2.200                                             
     0     -3.8421270     23  2.500                                             
     1    -30.5053914     23  2.200                                             
     1     20.4087390     23  2.200                                             
     2     -2.3340816     23  2.500                                             
     2     -0.6120942     23  2.500                                             
     3     -4.0817478     23  2.500                                             
  local pseudopotential read in
  partial core-charges read in
  partial kinetic energy density read in
  atomic valenz-charges read in
  non local Contribution for L=           0  read in
    real space projection operators read in
  non local Contribution for L=           0  read in
    real space projection operators read in
  non local Contribution for L=           1  read in
    real space projection operators read in
  non local Contribution for L=           1  read in
    real space projection operators read in
  non local Contribution for L=           2  read in
    real space projection operators read in
  non local Contribution for L=           2  read in
    real space projection operators read in
    PAW grid and wavefunctions read in
 
   number of l-projection  operators is LMAX  =           6
   number of lm-projection operators is LMMAX =          18
 
 POTCAR:    PAW_PBE O 08Apr2002                   
   VRHFIN =O: s2p4                                                              
   LEXCH  = PE                                                                  
   EATOM  =   432.3788 eV,   31.7789 Ry                                         
                                                                                
   TITEL  = PAW_PBE O 08Apr2002                                                 
   LULTRA =        F    use ultrasoft PP ?                                      
   IUNSCR =        1    unscreen: 0-lin 1-nonlin 2-no                           
   RPACOR =    1.200    partial core radius                                     
   POMASS =   16.000; ZVAL   =    6.000    mass and valenz                      
   RCORE  =    1.520    outmost cutoff radius                                   
   RWIGS  =    1.550; RWIGS  =    0.820    wigner-seitz radius (au A)           
   ENMAX  =  400.000; ENMIN  =  300.000 eV                                      
   ICORE  =        2    local potential                                         
   LCOR   =        T    correct aug charges                                     
   LPAW   =        T    paw PP                                                  
   EAUG   =  605.392                                                            
   DEXC   =    0.000                                                            
   RMAX   =    1.553    core radius for proj-oper                               
   RAUG   =    1.300    factor for augmentation sphere                          
   RDEP   =    1.550    radius for radial grids                                 
   RDEPT  =    1.329    core radius for aug-charge                              
                                                                                
   Atomic configuration                                                         
    4 entries                                                                   
     n  l   j            E        occ.                                          
     1  0  0.50      -514.6923   2.0000                                         
     2  0  0.50       -23.9615   2.0000                                         
     2  1  0.50        -9.0305   4.0000                                         
     3  2  1.50        -9.5241   0.0000                                         
   Description                                                                  
     l       E           TYP  RCUT    TYP  RCUT                                 
     0    -23.9615318     23  1.200                                             
     0     -9.5240782     23  1.200                                             
     1     -9.0304911     23  1.520                                             
     1      8.1634956     23  1.520                                             
     2     -9.5240782      7  1.500                                             
  local pseudopotential read in
  partial core-charges read in
  partial kinetic energy density read in
  kinetic energy density of atom read in
  atomic valenz-charges read in
  non local Contribution for L=           0  read in
    real space projection operators read in
  non local Contribution for L=           0  read in
    real space projection operators read in
  non local Contribution for L=           1  read in
    real space projection operators read in
  non local Contribution for L=           1  read in
    real space projection operators read in
    PAW grid and wavefunctions read in
 
   number of l-projection  operators is LMAX  =           4
   number of lm-projection operators is LMMAX =           8
 
 POTCAR:    PAW_PBE H 15Jun2001                   
   VRHFIN =H: ultrasoft test                                                    
   LEXCH  = PE                                                                  
   EATOM  =    12.4884 eV,    0.9179 Ry                                         
                                                                                
   TITEL  = PAW_PBE H 15Jun2001                                                 
   LULTRA =        F    use ultrasoft PP ?                                      
   IUNSCR =        0    unscreen: 0-lin 1-nonlin 2-no                           
   RPACOR =    0.000    partial core radius                                     
   POMASS =    1.000; ZVAL   =    1.000    mass and valenz                      
   RCORE  =    1.100    outmost cutoff radius                                   
   RWIGS  =    0.700; RWIGS  =    0.370    wigner-seitz radius (au A)           
   ENMAX  =  250.000; ENMIN  =  200.000 eV                                      
   RCLOC  =    0.701    cutoff for local pot                                    
   LCOR   =        T    correct aug charges                                     
   LPAW   =        T    paw PP                                                  
   EAUG   =  400.000                                                            
   RMAX   =    1.123    core radius for proj-oper                               
   RAUG   =    1.200    factor for augmentation sphere                          
   RDEP   =    1.112    radius for radial grids                                 
   RDEPT  =    0.926    core radius for aug-charge                              
                                                                                
   Atomic configuration                                                         
    2 entries                                                                   
     n  l   j            E        occ.                                          
     1  0  0.50        -6.4927   1.0000                                         
     2  1  0.50        -3.4015   0.0000                                         
   Description                                                                  
     l       E           TYP  RCUT    TYP  RCUT                                 
     0     -6.4927494     23  1.100                                             
     0      6.8029130     23  1.100                                             
     1     -4.0817478     23  1.100                                             
  local pseudopotential read in
  atomic valenz-charges read in
  non local Contribution for L=           0  read in
    real space projection operators read in
  non local Contribution for L=           0  read in
    real space projection operators read in
  non local Contribution for L=           1  read in
    real space projection operators read in
    PAW grid and wavefunctions read in
 
   number of l-projection  operators is LMAX  =           3
   number of lm-projection operators is LMMAX =           5
 
 POTCAR:    PAW_PBE C 08Apr2002                   
   VRHFIN =C: s2p2                                                              
   LEXCH  = PE                                                                  
   EATOM  =   147.1560 eV,   10.8157 Ry                                         
                                                                                
   TITEL  = PAW_PBE C 08Apr2002                                                 
   LULTRA =        F    use ultrasoft PP ?                                      
   IUNSCR =        1    unscreen: 0-lin 1-nonlin 2-no                           
   RPACOR =    1.200    partial core radius                                     
   POMASS =   12.011; ZVAL   =    4.000    mass and valenz                      
   RCORE  =    1.500    outmost cutoff radius                                   
   RWIGS  =    1.630; RWIGS  =    0.863    wigner-seitz radius (au A)           
   ENMAX  =  400.000; ENMIN  =  300.000 eV                                      
   ICORE  =        2    local potential                                         
   LCOR   =        T    correct aug charges                                     
   LPAW   =        T    paw PP                                                  
   EAUG   =  644.873                                                            
   DEXC   =    0.000                                                            
   RMAX   =    1.529    core radius for proj-oper                               
   RAUG   =    1.300    factor for augmentation sphere                          
   RDEP   =    1.501    radius for radial grids                                 
   RDEPT  =    1.300    core radius for aug-charge                              
                                                                                
   Atomic configuration                                                         
    4 entries                                                                   
     n  l   j            E        occ.                                          
     1  0  0.50      -273.3789   2.0000                                         
     2  0  0.50       -13.7508   2.0000                                         
     2  1  0.50        -5.2854   2.0000                                         
     3  2  1.50        -5.4423   0.0000                                         
   Description                                                                  
     l       E           TYP  RCUT    TYP  RCUT                                 
     0    -13.7508458     23  1.200                                             
     0     -8.2022199     23  1.200                                             
     1     -5.2854383     23  1.500                                             
     1     34.0145650     23  1.500                                             
     2     -5.4423304      7  1.500                                             
  local pseudopotential read in
  partial core-charges read in
  partial kinetic energy density read in
  atomic valenz-charges read in
  non local Contribution for L=           0  read in
    real space projection operators read in
  non local Contribution for L=           0  read in
    real space projection operators read in
  non local Contribution for L=           1  read in
    real space projection operators read in
  non local Contribution for L=           1  read in
    real space projection operators read in
    PAW grid and wavefunctions read in
 
   number of l-projection  operators is LMAX  =           4
   number of lm-projection operators is LMMAX =           8
 
 Optimization of the real space projectors (new method)

 maximal supplied QI-value         = 15.12
 optimisation between [QCUT,QGAM] = [ 11.34, 22.83] = [ 36.00,145.93] Ry 
 Optimized for a Real-space Cutoff    1.47 Angstroem

   l    n(q)    QCUT    max X(q) W(low)/X(q) W(high)/X(q)  e(spline) 
   0     10    11.338    12.107    0.38E-04    0.13E-04    0.27E-07
   0     10    11.338     9.948    0.69E-04    0.30E-04    0.38E-07
   1     10    11.338     3.563    0.26E-04    0.18E-04    0.40E-07
   1     10    11.338     4.524    0.25E-03    0.39E-04    0.44E-06
   2      9    11.338    87.261    0.26E-03    0.91E-05    0.26E-06
   2      9    11.338    70.950    0.25E-03    0.91E-05    0.25E-06
 Optimization of the real space projectors (new method)

 maximal supplied QI-value         = 24.76
 optimisation between [QCUT,QGAM] = [ 11.39, 22.77] = [ 36.31,145.25] Ry 
 Optimized for a Real-space Cutoff    1.00 Angstroem

   l    n(q)    QCUT    max X(q) W(low)/X(q) W(high)/X(q)  e(spline) 
   0      7    11.387    20.381    0.39E-03    0.13E-02    0.15E-06
   0      7    11.387    15.268    0.42E-03    0.14E-02    0.17E-06
   1      6    11.387     5.964    0.41E-03    0.11E-02    0.17E-06
   1      6    11.387     5.382    0.39E-03    0.87E-03    0.15E-06
 Optimization of the real space projectors (new method)

 maximal supplied QI-value         = 34.20
 optimisation between [QCUT,QGAM] = [ 11.29, 22.57] = [ 35.68,142.71] Ry 
 Optimized for a Real-space Cutoff    1.16 Angstroem

   l    n(q)    QCUT    max X(q) W(low)/X(q) W(high)/X(q)  e(spline) 
   0      8    11.287    19.460    0.40E-03    0.73E-03    0.16E-06
   0      8    11.287    12.209    0.38E-03    0.70E-03    0.15E-06
   1      7    11.287     4.655    0.22E-03    0.25E-04    0.22E-06
 Optimization of the real space projectors (new method)

 maximal supplied QI-value         = 25.13
 optimisation between [QCUT,QGAM] = [ 11.31, 22.87] = [ 35.82,146.48] Ry 
 Optimized for a Real-space Cutoff    1.00 Angstroem

   l    n(q)    QCUT    max X(q) W(low)/X(q) W(high)/X(q)  e(spline) 
   0      7    11.310   115.676    0.43E-03    0.13E-02    0.19E-06
   0      7    11.310    87.132    0.43E-03    0.13E-02    0.18E-06
   1      6    11.310     4.429    0.42E-03    0.74E-03    0.11E-06
   1      6    11.310     2.733    0.34E-03    0.55E-03    0.92E-07
  PAW_PBE Zr_sv 04Jan2005               :
 energy of atom  1       EATOM=-1284.2219
 kinetic energy error for atom=    0.0049 (will be added to EATOM!!)
  PAW_PBE O 08Apr2002                   :
 energy of atom  2       EATOM= -432.3788
 kinetic energy error for atom=    0.0224 (will be added to EATOM!!)
  PAW_PBE H 15Jun2001                   :
 energy of atom  3       EATOM=  -12.4884
 kinetic energy error for atom=    0.0020 (will be added to EATOM!!)
  PAW_PBE C 08Apr2002                   :
 energy of atom  4       EATOM= -147.1560
 kinetic energy error for atom=    0.0076 (will be added to EATOM!!)
 
 
 POSCAR: CONTCAR\(3)                             
  positions in direct lattice
  velocities in cartesian coordinates
  No initial velocities read in
 exchange correlation table for  LEXCH =        8
   RHO(1)=    0.500       N(1)  =     2000
   RHO(2)=  100.500       N(2)  =     4000
 


--------------------------------------------------------------------------------------------------------


 ion  position               nearest neighbor table
   1  0.088  0.321  0.038-  78 2.10  62 2.10  50 2.18  74 2.19  61 2.26  54 2.30  16 3.37   6 3.50
                            12 3.52  13 3.65
   2  0.338  0.821  0.038-  79 2.10  63 2.10  51 2.18  75 2.19  58 2.26  55 2.30  13 3.37   7 3.50
                             9 3.52  14 3.65
   3  0.588  0.321  0.038-  80 2.10  64 2.10  52 2.18  76 2.19  59 2.26  56 2.30  14 3.37   8 3.50
                            10 3.52  15 3.65
   4  0.838  0.821  0.038-  81 2.10  65 2.10  53 2.18  77 2.19  60 2.26  57 2.30  15 3.37   5 3.50
                            11 3.52  16 3.65
   5  0.070  0.834  0.049-  82 2.07  66 2.10  65 2.18  58 2.19  57 2.22  70 2.30  12 3.37  17 3.46
                             4 3.50  16 3.52   9 3.65
   6  0.320  0.334  0.049-  83 2.06  67 2.10  62 2.18  59 2.19  54 2.22  71 2.30   9 3.37  18 3.47
                             1 3.50  13 3.52  10 3.65
   7  0.570  0.834  0.049-  84 2.06  68 2.10  63 2.18  60 2.19  55 2.22  72 2.30  10 3.37  19 3.48
                             2 3.50  14 3.52  11 3.65
   8  0.820  0.334  0.049-  85 2.08  69 2.10  64 2.18  61 2.19  56 2.22  73 2.30  11 3.37   3 3.50
                            20 3.51  15 3.52  12 3.65
   9  0.238  0.068  0.057-  62 2.10  86 2.16  67 2.18  70 2.19  75 2.22  58 2.30   6 3.37  17 3.49
                            14 3.50  22 3.51   2 3.52   5 3.65
  10  0.488  0.568  0.057-  63 2.10  87 2.17  68 2.18  71 2.19  76 2.22  59 2.30   7 3.37  18 3.48
                            15 3.50  23 3.52   3 3.52   6 3.65
  11  0.738  0.068  0.057-  64 2.10  69 2.18  88 2.18  72 2.19  77 2.22  60 2.30   8 3.37  19 3.47
                            16 3.50   4 3.52  24 3.53   7 3.65
  12  0.988  0.568  0.057-  65 2.10  66 2.18  89 2.18  73 2.19  74 2.22  61 2.30   5 3.37  13 3.50
                             1 3.52  21 3.53  20 3.53   8 3.65
  13  0.220  0.581  0.068-  51 2.10  66 2.10  79 2.18  54 2.19  90 2.26  71 2.26  74 2.30   2 3.37
                            26 3.49  21 3.50  18 3.50  12 3.50   6 3.52   1 3.65
  14  0.470  0.081  0.068-  52 2.10  67 2.10  80 2.18  55 2.19  72 2.26  91 2.27  75 2.30   3 3.37
                            27 3.48  22 3.49   9 3.50  19 3.52   7 3.52   2 3.65
  15  0.720  0.581  0.068-  53 2.10  68 2.10  81 2.18  56 2.19  73 2.26  92 2.27  76 2.30   4 3.37
                            23 3.49  28 3.50  10 3.50   8 3.52  20 3.54   3 3.65
  16  0.970  0.081  0.068-  50 2.10  69 2.10  78 2.18  57 2.19  70 2.26  93 2.26  77 2.30   1 3.37
                            17 3.50  11 3.50  25 3.50  24 3.51   5 3.52   4 3.65
  17  0.106  0.982  0.171-  94 2.09 110 2.13  82 2.16  70 2.19 106 2.20  93 2.23  86 2.31  32 3.40
                             5 3.46   9 3.49  16 3.50  22 3.52  25 3.54  29 3.67
  18  0.356  0.484  0.171-  95 2.09 111 2.13  83 2.16  71 2.19 107 2.19  90 2.23  87 2.30  29 3.37
                             6 3.47  10 3.48  13 3.50  23 3.52  26 3.54  30 3.64
  19  0.608  0.984  0.171-  96 2.09 112 2.14  84 2.18  72 2.19 108 2.20  91 2.23  88 2.28  30 3.39
                            11 3.47   7 3.48  24 3.49  14 3.52  27 3.52  31 3.69
  20  0.856  0.483  0.173-  97 2.10 113 2.12  85 2.19 109 2.19  92 2.23  73 2.24  89 2.32  31 3.33
                            28 3.49   8 3.51  21 3.53  12 3.53  15 3.54  32 3.63
  21  0.089  0.495  0.183- 114 2.09  98 2.11  97 2.17  90 2.18  74 2.24  89 2.27 102 2.29  25 3.37
                            13 3.50  32 3.51  20 3.53  12 3.53  26 3.62  33 3.64
  22  0.339  0.995  0.182- 115 2.10  99 2.11  94 2.17  91 2.19  75 2.23 103 2.25  86 2.27  26 3.39
                            14 3.49  29 3.51   9 3.51  17 3.52  34 3.61  27 3.62
  23  0.589  0.492  0.182- 100 2.08 116 2.12  95 2.17  92 2.18  76 2.22  87 2.29 104 2.30  27 3.36
                            35 3.49  15 3.49  10 3.52  18 3.52  30 3.57  28 3.69
  24  0.839  0.995  0.183- 117 2.10 101 2.10  96 2.18  93 2.18  77 2.25  88 2.27 105 2.28  28 3.36
                            19 3.49  16 3.51  11 3.53  31 3.53  36 3.61  25 3.64
  25  0.005  0.230  0.191-  78 2.10  97 2.10 121 2.17  98 2.19 105 2.21 106 2.29  93 2.30  21 3.37
                            37 3.45  16 3.50  17 3.54  29 3.55  24 3.64  36 3.66
  26  0.253  0.730  0.191-  94 2.10  79 2.10 102 2.18  99 2.20 118 2.20 107 2.29  90 2.29  22 3.39
                            38 3.46  13 3.49  30 3.54  18 3.54  21 3.62  33 3.66
  27  0.504  0.229  0.191-  80 2.09  95 2.11 119 2.18 100 2.19 103 2.19  91 2.29 108 2.29  23 3.36
                            39 3.47  14 3.48  19 3.52  31 3.59  22 3.62  34 3.66
  28  0.758  0.729  0.191-  81 2.08  96 2.12 101 2.16 120 2.22 109 2.24 104 2.24  92 2.30  24 3.36
                            35 3.48  32 3.48  20 3.49  15 3.50  40 3.60  23 3.69
  29  0.239  0.242  0.201-  98 2.10  83 2.10 122 2.19 103 2.21 111 2.22  86 2.23 106 2.28  18 3.37
                            37 3.41  42 3.50  22 3.51  25 3.55  34 3.63  17 3.67
  30  0.487  0.743  0.199-  99 2.07  84 2.09 112 2.20 123 2.20  87 2.21 104 2.26 107 2.29  19 3.39
                            38 3.45  35 3.47  43 3.50  26 3.54  23 3.57  18 3.64
  31  0.741  0.245  0.204-  85 2.11 100 2.12 113 2.12 105 2.21 124 2.25  88 2.28 108 2.32  20 3.33
                            39 3.45  24 3.53  44 3.54  27 3.59  36 3.64  19 3.69
  32  0.988  0.740  0.203- 101 2.12  82 2.14 110 2.19 102 2.21 125 2.22  89 2.23 109 2.26  17 3.40
                            41 3.45  28 3.48  21 3.51  40 3.54  33 3.63  20 3.63
  33  0.123  0.641  0.314- 142 2.02 126 2.16 138 2.17 114 2.21 125 2.23 118 2.39 102 2.42  45 3.23
                            41 3.47  38 3.54  32 3.63  21 3.64  26 3.66  46 3.72
  34  0.371  0.140  0.313- 143 2.02 127 2.14 139 2.19 115 2.20 122 2.23 119 2.36 103 2.43  46 3.23
                            42 3.49  39 3.54  22 3.61  29 3.63  47 3.66  27 3.66
  35  0.621  0.648  0.303- 140 2.14 123 2.17 104 2.18 116 2.19 128 2.21 120 2.23 144 2.25  49 3.17
                            43 3.42  47 3.43  30 3.47  28 3.48  23 3.49  40 3.59  48 3.70
  36  0.874  0.137  0.314- 145 2.03 129 2.12 141 2.14 117 2.22 124 2.30 105 2.38 121 2.45  48 3.22
                            44 3.40  37 3.55  24 3.61  31 3.64  25 3.66  45 3.76
  37  0.110  0.161  0.312- 130 2.09 121 2.14 106 2.16 129 2.16 122 2.16 134 2.17  29 3.41  25 3.45
                            41 3.45  45 3.51  36 3.55  42 3.58
  38  0.358  0.659  0.313- 131 2.10 126 2.15 118 2.16 107 2.16 135 2.16 123 2.17  42 3.44  30 3.45
                            26 3.46  46 3.53  33 3.54  43 3.59
  39  0.606  0.157  0.314- 136 2.10 132 2.11 127 2.15 108 2.16 124 2.18 119 2.22  43 3.42  31 3.45
                            47 3.46  27 3.47  34 3.54  44 3.67
  40  0.858  0.663  0.322- 146 2.13 133 2.14 137 2.19 125 2.20 120 2.21 128 2.32 109 2.35  49 3.36
                            48 3.44  32 3.54  44 3.55  41 3.59  35 3.59  28 3.60
  41  0.027  0.889  0.324- 110 2.05 137 2.14 138 2.15 129 2.16 130 2.20 125 2.30  37 3.45  32 3.45
                            33 3.47  46 3.50  40 3.59
  42  0.275  0.388  0.325- 111 2.06 139 2.13 126 2.14 131 2.25 134 2.25 122 2.29  38 3.44  34 3.49
                            47 3.50  29 3.50  37 3.58
  43  0.524  0.888  0.324- 112 2.06 140 2.13 127 2.14 132 2.18 135 2.27 123 2.31  39 3.42  35 3.42
                            30 3.50  48 3.57  38 3.59
  44  0.784  0.380  0.333- 141 2.10 147 2.11 133 2.15 113 2.21 124 2.23 128 2.25 136 2.63  49 3.19
                            36 3.40  45 3.43  31 3.54  40 3.55  39 3.67
  45  0.011  0.406  0.336- 142 2.02 114 2.07 133 2.16 141 2.24 121 2.30 134 2.30  33 3.23  44 3.43
                            37 3.51  36 3.76
  46  0.259  0.906  0.336- 143 2.03 115 2.07 130 2.14 138 2.26 118 2.29 135 2.31  34 3.23  41 3.50
                            38 3.53  33 3.72
  47  0.507  0.400  0.334- 116 2.07 136 2.14 131 2.17 119 2.22 139 2.24 144 2.24  35 3.43  39 3.46
                            42 3.50  34 3.66  49 3.90
  48  0.760  0.905  0.337- 145 2.01 117 2.06 132 2.20 137 2.21 120 2.34 140 2.36  36 3.22  40 3.44
                            43 3.57  35 3.70
  49  0.705  0.556  0.413- 147 1.92 146 1.98 144 2.10 128 2.14  35 3.17  44 3.19  40 3.36  47 3.90

  50  0.024  0.173  0.000-  16 2.10   1 2.18
  51  0.274  0.673  0.000-  13 2.10   2 2.18
  52  0.524  0.173  0.000-  14 2.10   3 2.18
  53  0.774  0.673  0.000-  15 2.10   4 2.18
  54  0.215  0.432  0.016-  13 2.19   6 2.22   1 2.30
  55  0.465  0.932  0.016-  14 2.19   7 2.22   2 2.30
  56  0.715  0.432  0.016-  15 2.19   8 2.22   3 2.30
  57  0.965  0.932  0.016-  16 2.19   5 2.22   4 2.30
  58  0.207  0.891  0.025-   5 2.19   2 2.26   9 2.30
  59  0.457  0.391  0.025-   6 2.19   3 2.26  10 2.30
  60  0.707  0.891  0.025-   7 2.19   4 2.26  11 2.30
  61  0.957  0.391  0.025-   8 2.19   1 2.26  12 2.30
  62  0.197  0.226  0.044-   9 2.10   1 2.10   6 2.18
  63  0.447  0.726  0.044-  10 2.10   2 2.10   7 2.18
  64  0.697  0.226  0.044-  11 2.10   3 2.10   8 2.18
  65  0.947  0.726  0.044-  12 2.10   4 2.10   5 2.18
  66  0.111  0.675  0.062-   5 2.10  13 2.10  12 2.18
  67  0.361  0.175  0.062-   6 2.10  14 2.10   9 2.18
  68  0.611  0.675  0.062-   7 2.10  15 2.10  10 2.18
  69  0.861  0.175  0.062-   8 2.10  16 2.10  11 2.18
  70  0.101  0.010  0.081-  17 2.19   9 2.19  16 2.26   5 2.30
  71  0.351  0.510  0.081-  18 2.19  10 2.19  13 2.26   6 2.30
  72  0.601  0.010  0.081-  19 2.19  11 2.19  14 2.26   7 2.30
  73  0.851  0.510  0.081-  12 2.19  20 2.24  15 2.26   8 2.30
  74  0.093  0.470  0.090-   1 2.19  12 2.22  21 2.24  13 2.30
  75  0.343  0.970  0.090-   2 2.19   9 2.22  22 2.23  14 2.30
  76  0.593  0.470  0.090-   3 2.19  23 2.22  10 2.22  15 2.30
  77  0.843  0.970  0.090-   4 2.19  11 2.22  24 2.25  16 2.30
  78  0.034  0.229  0.106-   1 2.10  25 2.10  16 2.18
  79  0.284  0.729  0.106-   2 2.10  26 2.10  13 2.18
  80  0.534  0.229  0.106-  27 2.09   3 2.10  14 2.18
  81  0.784  0.729  0.106-  28 2.08   4 2.10  15 2.18
  82  0.045  0.832  0.134-   5 2.07  32 2.14  17 2.16
  83  0.296  0.334  0.133-   6 2.06  29 2.10  18 2.16
  84  0.546  0.834  0.133-   7 2.06  30 2.09  19 2.18
  85  0.796  0.333  0.134-   8 2.08  31 2.11  20 2.19
  86  0.231  0.093  0.146-   9 2.16  29 2.23  22 2.27  17 2.31
  87  0.481  0.593  0.146-  10 2.17  30 2.21  23 2.29  18 2.30
  88  0.732  0.094  0.147-  11 2.18  24 2.27  19 2.28  31 2.28
  89  0.982  0.593  0.147-  12 2.18  32 2.23  21 2.27  20 2.32
  90  0.225  0.552  0.160-  21 2.18  18 2.23  13 2.26  26 2.29
  91  0.476  0.051  0.161-  22 2.19  19 2.23  14 2.27  27 2.29
  92  0.725  0.551  0.161-  23 2.18  20 2.23  15 2.27  28 2.30
  93  0.975  0.052  0.161-  24 2.18  17 2.23  16 2.26  25 2.30
  94  0.215  0.890  0.181-  17 2.09  26 2.10  22 2.17
  95  0.464  0.389  0.180-  18 2.09  27 2.11  23 2.17
  96  0.715  0.889  0.181-  19 2.09  28 2.12  24 2.18
  97  0.965  0.390  0.182-  20 2.10  25 2.10  21 2.17
  98  0.130  0.335  0.192-  29 2.10  21 2.11  25 2.19
  99  0.379  0.835  0.193-  30 2.07  22 2.11  26 2.20
 100  0.628  0.335  0.194-  23 2.08  31 2.12  27 2.19
 101  0.880  0.836  0.194-  24 2.10  32 2.12  28 2.16
 102  0.118  0.671  0.215-  26 2.18  32 2.21  21 2.29  33 2.42
 103  0.367  0.169  0.213-  27 2.19  29 2.21  22 2.25  34 2.43
 104  0.618  0.670  0.213-  35 2.18  28 2.24  30 2.26  23 2.30
 105  0.868  0.169  0.216-  25 2.21  31 2.21  24 2.28  36 2.38
 106  0.116  0.130  0.224-  37 2.16  17 2.20  29 2.28  25 2.29
 107  0.363  0.631  0.224-  38 2.16  18 2.19  26 2.29  30 2.29
 108  0.615  0.131  0.225-  39 2.16  19 2.20  27 2.29  31 2.32
 109  0.864  0.631  0.225-  20 2.19  28 2.24  32 2.26  40 2.35
 110  0.047  0.893  0.240-  41 2.05  17 2.13  32 2.19
 111  0.297  0.396  0.241-  42 2.06  18 2.13  29 2.22
 112  0.547  0.893  0.240-  43 2.06  19 2.14  30 2.20
 113  0.797  0.392  0.241-  20 2.12  31 2.12  44 2.21
 114  0.070  0.492  0.269-  45 2.07  21 2.09  33 2.21
 115  0.315  0.992  0.268-  46 2.07  22 2.10  34 2.20
 116  0.560  0.493  0.268-  47 2.07  23 2.12  35 2.19
 117  0.809  0.993  0.269-  48 2.06  24 2.10  36 2.22
 118  0.252  0.750  0.283-  38 2.16  26 2.20  46 2.29  33 2.39
 119  0.497  0.250  0.281-  27 2.18  39 2.22  47 2.22  34 2.36
 120  0.749  0.745  0.283-  40 2.21  28 2.22  35 2.23  48 2.34
 121  0.005  0.251  0.281-  37 2.14  25 2.17  45 2.30  36 2.45
 122  0.246  0.214  0.291-  37 2.16  29 2.19  34 2.23  42 2.29
 123  0.494  0.712  0.289-  35 2.17  38 2.17  30 2.20  43 2.31
 124  0.744  0.214  0.296-  39 2.18  44 2.23  31 2.25  36 2.30
 125  0.995  0.710  0.294-  40 2.20  32 2.22  33 2.23  41 2.30
 126  0.239  0.554  0.329-  42 2.14  38 2.15  33 2.16
 127  0.486  0.052  0.327-  34 2.14  43 2.14  39 2.15
 128  0.729  0.545  0.325-  49 2.14  35 2.21  44 2.25  40 2.32
 129  0.990  0.055  0.328-  36 2.12  37 2.16  41 2.16
 130  0.148  0.004  0.330-  37 2.09  46 2.14  41 2.20
 131  0.399  0.505  0.335-  38 2.10  47 2.17  42 2.25
 132  0.643  1.000  0.335-  39 2.11  43 2.18  48 2.20
 133  0.897  0.499  0.329-  40 2.14  44 2.15  45 2.16
 134  0.138  0.320  0.352-  37 2.17  42 2.25  45 2.30
 135  0.386  0.819  0.351-  38 2.16  43 2.27  46 2.31
 136  0.618  0.310  0.355-  39 2.10  47 2.14  44 2.63
 137  0.891  0.838  0.342-  41 2.14  40 2.19  48 2.21
 138  0.133  0.799  0.356-  41 2.15  33 2.17  46 2.26
 139  0.381  0.299  0.356-  42 2.13  34 2.19  47 2.24
 140  0.627  0.793  0.354-  43 2.13  35 2.14  48 2.36
 141  0.891  0.292  0.356-  44 2.10  36 2.14  45 2.24
 142  0.067  0.542  0.375-  45 2.02  33 2.02
 143  0.316  0.043  0.375-  34 2.02  46 2.03
 144  0.578  0.544  0.377-  49 2.10  47 2.24  35 2.25
 145  0.816  0.041  0.375-  48 2.01  36 2.03
 146  0.800  0.677  0.402-  49 1.98  40 2.13
 147  0.760  0.420  0.417-  49 1.92  44 2.11
 148  0.673  0.881  0.491- 157 1.10
 149  0.449  0.713  0.520- 156 1.10
 150  0.570  0.903  0.460- 157 1.10
 151  0.469  0.608  0.472- 156 1.10
 152  0.449  0.741  0.448- 156 1.10
 153  0.613  0.687  0.516- 158 1.11
 154  0.610  0.714  0.442- 158 1.11
 155  0.575  0.882  0.533- 157 1.10
 156  0.481  0.696  0.481- 151 1.10 149 1.10 152 1.10 158 1.53
 157  0.601  0.856  0.492- 148 1.10 155 1.10 150 1.10 158 1.53
 158  0.581  0.733  0.483- 153 1.11 154 1.11 157 1.53 156 1.53
 
  Warning from LATTYP: Monoclinic adjustement (A1->A3, A2->A1, A3->A2)!
  Warning from LATTYP: Got some problem with cell dimensions!
  Tried to take original basis but could not verify dimensions!
  LATTYP: Found a simple monoclinic cell.
 ALAT       =    18.5584556648
 B/A-ratio  =     1.2917238965
 C/A-ratio  =     1.7011970181
 COS(beta)  =    -0.9496615564
  
  Lattice vectors:
  
 A1 = ( -14.0305058395, -12.1474763861,   0.0000000000)
 A2 = (   0.0000000000,   0.0000000000, -23.9724006653)
 A3 = (  29.1411063110,  12.1474763861,   0.0000000000)


Analysis of symmetry for initial positions (statically):
=====================================================================
 Subroutine PRICEL returns:
 Original cell was already a primitive cell.
 

 Routine SETGRP: Setting up the symmetry group for a 
 simple monoclinic supercell.


 Subroutine GETGRP returns: Found  1 space group operations
 (whereof  1 operations were pure point group operations)
 out of a pool of  4 trial point group operations.


The static configuration has the point symmetry C_1 .


Analysis of symmetry for dynamics (positions and initial velocities):
=====================================================================
 Subroutine PRICEL returns:
 Original cell was already a primitive cell.
 

 Routine SETGRP: Setting up the symmetry group for a 
 simple monoclinic supercell.


 Subroutine GETGRP returns: Found  1 space group operations
 (whereof  1 operations were pure point group operations)
 out of a pool of  4 trial point group operations.


The dynamic configuration has the point symmetry C_1 .


Analysis of constrained symmetry for selective dynamics:
=====================================================================
 Subroutine PRICEL returns:
 Original cell was already a primitive cell.
 

 Routine SETGRP: Setting up the symmetry group for a 
 simple monoclinic supercell.


 Subroutine GETGRP returns: Found  1 space group operations
 (whereof  1 operations were pure point group operations)
 out of a pool of  4 trial point group operations.


The constrained configuration has the point symmetry C_1 .


Analysis of structural, dynamic, and magnetic symmetry:
=====================================================================
 Subroutine PRICEL returns:
 Original cell was already a primitive cell.
 

 Routine SETGRP: Setting up the symmetry group for a 
 simple monoclinic supercell.


 Subroutine GETGRP returns: Found  1 space group operations
 (whereof  1 operations were pure point group operations)
 out of a pool of  4 trial point group operations.


The magnetic configuration has the point symmetry C_1 .


 Subroutine INISYM returns: Found  1 space group operations
 (whereof  1 operations are pure point group operations),
 and found     1 'primitive' translations

 
 
 KPOINTS: Monkhorst Pack                          

Automatic generation of k-mesh.
Space group operators:
 irot       det(A)        alpha          n_x          n_y          n_z        tau_x        tau_y        tau_z
    1     1.000000     0.000000     1.000000     0.000000     0.000000     0.000000     0.000000     0.000000
 
 Subroutine IBZKPT returns following result:
 ===========================================
 
 Found      2 irreducible k-points:
 
 Following reciprocal coordinates:
            Coordinates               Weight
  0.250000  0.250000  0.000000      2.000000
 -0.250000  0.250000  0.000000      2.000000
 
 Following cartesian coordinates:
            Coordinates               Weight
  0.016545  0.022051  0.000000      2.000000
 -0.016545  0.019109  0.000000      2.000000
 


--------------------------------------------------------------------------------------------------------




 Dimension of arrays:
   k-points           NKPTS =      2   k-points in BZ     NKDIM =      2   number of bands    NBANDS=    640
   number of dos      NEDOS =    301   number of ions     NIONS =    158
   non local maximal  LDIM  =      6   non local SUM 2l+1 LMDIM =     18
   total plane-waves  NPLWV = 823200
   max r-space proj   IRMAX =   2561   max aug-charges    IRDMAX=   7978
   dimension x,y,z NGX =    84 NGY =   70 NGZ =  140
   dimension x,y,z NGXF=   168 NGYF=  140 NGZF=  280
   support grid    NGXF=   168 NGYF=  140 NGZF=  280
   ions per type =              49  98   8   3
   NGX,Y,Z   is equivalent  to a cutoff of   9.24,  9.54,  9.71 a.u.
   NGXF,Y,Z  is equivalent  to a cutoff of  18.48, 19.08, 19.42 a.u.

 SYSTEM =  mZrO2_n111                              
 POSCAR =  CONTCAR\(3)                             

 Startparameter for this run:
   NWRITE =      2    write-flag & timer
   PREC   = normal    normal or accurate (medium, high low for compatibility)
   ISTART =      1    job   : 0-new  1-cont  2-samecut
   ICHARG =      1    charge: 1-file 2-atom 10-const
   ISPIN  =      2    spin polarized calculation?
   LNONCOLLINEAR =      F non collinear calculations
   LSORBIT =      F    spin-orbit coupling
   INIWAV =      1    electr: 0-lowe 1-rand  2-diag
   LASPH  =      F    aspherical Exc in radial PAW
   METAGGA=      F    non-selfconsistent MetaGGA calc.

 Electronic Relaxation 1
   ENCUT  =  500.0 eV  36.75 Ry    6.06 a.u.  27.55 22.24 43.71*2*pi/ulx,y,z
   ENINI  =  500.0     initial cutoff
   ENAUG  =  644.9 eV  augmentation charge cutoff
   NELM   =    300;   NELMIN=  2; NELMDL=  0     # of ELM steps 
   EDIFF  = 0.1E-05   stopping-criterion for ELM
   LREAL  =      T    real-space projection
   NLSPLINE    = F    spline interpolate recip. space projectors
   LCOMPAT=      F    compatible to vasp.4.4
   GGA_COMPAT  = T    GGA compatible to vasp.4.4-vasp.4.6
   LMAXPAW     = -100 max onsite density
   LMAXMIX     =    2 max onsite mixed and CHGCAR
   VOSKOWN=      0    Vosko Wilk Nusair interpolation
   ROPT   =   -0.00050  -0.00050  -0.00050  -0.00050
 Ionic relaxation
   EDIFFG = -.2E-01   stopping-criterion for IOM
   NSW    =      0    number of steps for IOM
   NBLOCK =      1;   KBLOCK =      1    inner block; outer block 
   IBRION =     -1    ionic relax: 0-MD 1-quasi-New 2-CG
   NFREE  =      1    steps in history (QN), initial steepest desc. (CG)
   ISIF   =      2    stress and relaxation
   IWAVPR =     10    prediction:  0-non 1-charg 2-wave 3-comb
   ISYM   =      2    0-nonsym 1-usesym 2-fastsym
   LCORR  =      T    Harris-Foulkes like correction to forces

   POTIM  = 0.5000    time-step for ionic-motion
   TEIN   =    0.0    initial temperature
   TEBEG  =    0.0;   TEEND  =   0.0 temperature during run
   SMASS  =  -3.00    Nose mass-parameter (am)
   estimated Nose-frequenzy (Omega)   =  0.10E-29 period in steps =****** mass=  -0.522E-26a.u.
   SCALEE = 1.0000    scale energy and forces
   NPACO  =    256;   APACO  = 16.0  distance and # of slots for P.C.
   PSTRESS=    0.0 pullay stress

  Mass of Ions in am
   POMASS =  91.22 16.00  1.00 12.01
  Ionic Valenz
   ZVAL   =  12.00  6.00  1.00  4.00
  Atomic Wigner-Seitz radii
   RWIGS  =  -1.00 -1.00 -1.00 -1.00
  virtual crystal weights 
   VCA    =   1.00  1.00  1.00  1.00
   NELECT =    1196.0000    total number of electrons
   NUPDOWN=      -1.0000    fix difference up-down

 DOS related values:
   EMIN   =  10.00;   EMAX   =-10.00  energy-range for DOS
   EFERMI =   0.00
   ISMEAR =     0;   SIGMA  =   0.05  broadening in eV -4-tet -1-fermi 0-gaus

 Electronic relaxation 2 (details)
   IALGO  =     38    algorithm
   LDIAG  =      T    sub-space diagonalisation (order eigenvalues)
   LSUBROT=      F    optimize rotation matrix (better conditioning)
   TURBO    =      0    0=normal 1=particle mesh
   IRESTART =      0    0=no restart 2=restart with 2 vectors
   NREBOOT  =      0    no. of reboots
   NMIN     =      0    reboot dimension
   EREF     =   0.00    reference energy to select bands
   IMIX   =      4    mixing-type and parameters
     AMIX     =   0.40;   BMIX     =  1.00
     AMIX_MAG =   1.60;   BMIX_MAG =  1.00
     AMIN     =   0.10
     WC   =   100.;   INIMIX=   1;  MIXPRE=   1;  MAXMIX= -45

 Intra band minimization:
   WEIMIN = 0.0000     energy-eigenvalue tresh-hold
   EBREAK =  0.39E-09  absolut break condition
   DEPER  =   0.30     relativ break condition  

   TIME   =   0.40     timestep for ELM

  volume/ion in A,a.u.               =      27.85       187.94
  Fermi-wavevector in a.u.,A,eV,Ry     =   1.060455  2.003969 15.300624  1.124564
  Thomas-Fermi vector in A             =   2.195836
 
 Write flags
   LWAVE        =      F    write WAVECAR
   LDOWNSAMPLE  =      F    k-point downsampling of WAVECAR
   LCHARG       =      F    write CHGCAR
   LVTOT        =      F    write LOCPOT, total local potential
   LVHAR        =      F    write LOCPOT, Hartree potential only
   LELF         =      F    write electronic localiz. function (ELF)
   LORBIT       =      0    0 simple, 1 ext, 2 COOP (PROOUT), +10 PAW based schemes


 Dipole corrections
   LMONO  =      F    monopole corrections only (constant potential shift)
   LDIPOL =      F    correct potential (dipole corrections)
   IDIPOL =      3    1-x, 2-y, 3-z, 4-all directions 
   EPSILON=  1.0000000 bulk dielectric constant

 LDA+U is selected, type is set to LDAUTYPE =  2
   angular momentum for each species LDAUL =     2   -1   -1   -1
   U (eV)           for each species LDAUU =   4.0  0.0  0.0  0.0
   J (eV)           for each species LDAUJ =   0.0  0.0  0.0  0.0
 Exchange correlation treatment:
   GGA     =    --    GGA type
   LEXCH   =     8    internal setting for exchange type
   VOSKOWN=      0    Vosko Wilk Nusair interpolation
   LHFCALC =     F    Hartree Fock is set to
   LHFONE  =     F    Hartree Fock one center treatment
   AEXX    =    0.0000 exact exchange contribution

 Linear response parameters
   LEPSILON=     F    determine dielectric tensor
   LRPA    =     F    only Hartree local field effects (RPA)
   LNABLA  =     F    use nabla operator in PAW spheres
   LVEL    =     F    velocity operator in full k-point grid
   LINTERFAST=   F  fast interpolation
   KINTER  =     0    interpolate to denser k-point grid
   CSHIFT  =0.1000    complex shift for real part using Kramers Kronig
   OMEGAMAX=  -1.0    maximum frequency
   DEG_THRESHOLD= 0.2000000E-02 threshold for treating states as degnerate
   RTIME   =   -0.100 relaxation time in fs
  (WPLASMAI=    0.000 imaginary part of plasma frequency in eV, 0.658/RTIME)
   DFIELD  = 0.0000000 0.0000000 0.0000000 field for delta impulse in time
 
 Orbital magnetization related:
   ORBITALMAG=     F  switch on orbital magnetization
   LCHIMAG   =     F  perturbation theory with respect to B field
   DQ        =  0.001000  dq finite difference perturbation B field
   LLRAUG    =     F  two centre corrections for induced B field



--------------------------------------------------------------------------------------------------------


 Static calculation
 charge density and potential will be updated during run
 spin polarized calculation
 Variant of blocked Davidson
 Davidson routine will perform the subspace rotation
 perform sub-space diagonalisation
    after iterative eigenvector-optimisation
 modified Broyden-mixing scheme, WC =      100.0
 initial mixing is a Kerker type mixing with AMIX =  0.4000 and BMIX =      1.0000
 Hartree-type preconditioning will be used
 using additional bands           42
 real space projection scheme for non local part
 use partial core corrections
 calculate Harris-corrections to forces 
   (improved forces if not selfconsistent)
 use gradient corrections 
 use of overlap-Matrix (Vanderbilt PP)
 Gauss-broadening in eV      SIGMA  =   0.05


--------------------------------------------------------------------------------------------------------


  energy-cutoff  :      500.00
  volume of cell :     4400.27
      direct lattice vectors                 reciprocal lattice vectors
    15.110600471  0.000000000  0.000000000     0.066178707  0.005884289  0.000000000
    -1.080094632 12.147476386  0.000000000     0.000000000  0.082321625  0.000000000
     0.000000000  0.000000000 23.972400665     0.000000000  0.000000000  0.041714637

  length of vectors
    15.110600471 12.195400238 23.972400665     0.066439793  0.082321625  0.041714637


 
 old parameters found on file WAVECAR:
  energy-cutoff  :      500.00
  volume of cell :     4400.27
      direct lattice vectors                 reciprocal lattice vectors
    15.110600471  0.000000000  0.000000000     0.066178707  0.005884289  0.000000000
    -1.080094632 12.147476386  0.000000000     0.000000000  0.082321625  0.000000000
     0.000000000  0.000000000 23.972400665     0.000000000  0.000000000  0.041714637

  length of vectors

 
 k-points in units of 2pi/SCALE and weight: Monkhorst Pack                          
   0.01654468  0.02205148  0.00000000       0.500
  -0.01654468  0.01910933  0.00000000       0.500
 
 k-points in reciprocal lattice and weights: Monkhorst Pack                          
   0.25000000  0.25000000  0.00000000       0.500
  -0.25000000  0.25000000  0.00000000       0.500
 
 position of ions in fractional coordinates (direct lattice) 
   0.08848000  0.32082999  0.03824000
   0.33847998  0.82083000  0.03824000
   0.58847999  0.32082999  0.03824000
   0.83848001  0.82083000  0.03824000
   0.07020001  0.83354995  0.04873000
   0.32019998  0.33355000  0.04873000
   0.57020004  0.83354995  0.04873000
   0.82020001  0.33355000  0.04873000
   0.23783000  0.06778000  0.05703000
   0.48783004  0.56778001  0.05703000
   0.73783001  0.06778000  0.05703000
   0.98782997  0.56778001  0.05703000
   0.21954999  0.58051001  0.06752000
   0.46955000  0.08051000  0.06752000
   0.71954999  0.58051001  0.06752000
   0.96955000  0.08051000  0.06752000
   0.10564390  0.98234284  0.17087553
   0.35608671  0.48356562  0.17104391
   0.60790576  0.98409754  0.17122850
   0.85573319  0.48292135  0.17331299
   0.08921920  0.49451329  0.18260037
   0.33890263  0.99508115  0.18213434
   0.58892799  0.49215540  0.18175881
   0.83858588  0.99491689  0.18286517
   0.00454105  0.23000805  0.19144606
   0.25282298  0.72979107  0.19132547
   0.50389368  0.22859286  0.19083869
   0.75811643  0.72927774  0.19111500
   0.23949737  0.24176101  0.20059375
   0.48726887  0.74294132  0.19920645
   0.74124114  0.24471822  0.20359252
   0.98841431  0.73952989  0.20289995
   0.12280996  0.64067747  0.31446913
   0.37117584  0.13951097  0.31295991
   0.62108718  0.64819109  0.30315187
   0.87424005  0.13669058  0.31399748
   0.10984439  0.16075161  0.31228178
   0.35797801  0.65927431  0.31257149
   0.60610548  0.15740404  0.31370385
   0.85792810  0.66312564  0.32159222
   0.02741397  0.88855279  0.32426182
   0.27534028  0.38820784  0.32540765
   0.52384532  0.88776645  0.32431869
   0.78355899  0.37962348  0.33278575
   0.01123204  0.40641403  0.33577747
   0.25883677  0.90644946  0.33607433
   0.50700296  0.39964355  0.33404120
   0.75981030  0.90534042  0.33707287
   0.70541163  0.55576731  0.41293809
   0.02440000  0.17254999  0.00000000
   0.27439999  0.67255002  0.00000000
   0.52439999  0.17254999  0.00000000
   0.77439999  0.67255002  0.00000000
   0.21455000  0.43156997  0.01581000
   0.46455001  0.93156996  0.01581000
   0.71455008  0.43156997  0.01581000
   0.96455004  0.93156996  0.01581000
   0.20673000  0.89092997  0.02490000
   0.45673000  0.39092998  0.02490000
   0.70672997  0.89092997  0.02490000
   0.95673004  0.39092998  0.02490000
   0.19748000  0.22610000  0.04418000
   0.44748002  0.72610003  0.04418000
   0.69748003  0.22610000  0.04418000
   0.94747999  0.72610003  0.04418000
   0.11054000  0.67523994  0.06158000
   0.36054002  0.17523999  0.06158000
   0.61053998  0.67523994  0.06158000
   0.86053999  0.17523999  0.06158000
   0.10129000  0.01041000  0.08086000
   0.35129000  0.51041000  0.08086000
   0.60128998  0.01041000  0.08086000
   0.85128994  0.51041000  0.08086000
   0.09348000  0.46976000  0.08995000
   0.34348000  0.96975995  0.08995000
   0.59348001  0.46976000  0.08995000
   0.84347996  0.96975995  0.08995000
   0.03362000  0.22878000  0.10576000
   0.28361999  0.72877998  0.10576000
   0.53361997  0.22878000  0.10576000
   0.78362002  0.72877998  0.10576000
   0.04530117  0.83249010  0.13376672
   0.29607893  0.33391994  0.13341984
   0.54605185  0.83413363  0.13327610
   0.79583077  0.33254122  0.13403753
   0.23140292  0.09329799  0.14610243
   0.48131519  0.59339145  0.14648508
   0.73164882  0.09360201  0.14690735
   0.98187554  0.59323538  0.14695923
   0.22540318  0.55220496  0.16043926
   0.47622028  0.05087088  0.16064044
   0.72513636  0.55148620  0.16073779
   0.97514711  0.05218239  0.16072906
   0.21500631  0.89022904  0.18107764
   0.46440415  0.38916051  0.18018042
   0.71501791  0.88853515  0.18087216
   0.96527223  0.39008211  0.18170856
   0.12993779  0.33477958  0.19237905
   0.37873387  0.83508536  0.19307714
   0.62833244  0.33486737  0.19441525
   0.87974127  0.83614922  0.19394188
   0.11765006  0.67084406  0.21493835
   0.36710737  0.16937626  0.21272141
   0.61783660  0.67049654  0.21290684
   0.86779451  0.16937718  0.21620674
   0.11557649  0.13003275  0.22376761
   0.36349548  0.63072052  0.22383166
   0.61496663  0.13097408  0.22505085
   0.86444414  0.63141619  0.22500650
   0.04729571  0.89291864  0.23981469
   0.29717655  0.39566657  0.24062321
   0.54725053  0.89324861  0.23984168
   0.79717601  0.39247864  0.24126896
   0.06953713  0.49181309  0.26887648
   0.31540073  0.99206303  0.26836777
   0.56019623  0.49333808  0.26832579
   0.80946460  0.99300824  0.26854235
   0.25156497  0.75008753  0.28256318
   0.49723380  0.24979541  0.28111117
   0.74886362  0.74540350  0.28298917
   0.00543884  0.25109383  0.28123425
   0.24603365  0.21391023  0.29078397
   0.49363824  0.71198089  0.28943832
   0.74397983  0.21402946  0.29617878
   0.99511992  0.71033676  0.29409251
   0.23943745  0.55390039  0.32939417
   0.48581101  0.05235019  0.32663058
   0.72925806  0.54473280  0.32502188
   0.99016755  0.05534048  0.32844246
   0.14778373  0.00365500  0.33032800
   0.39856879  0.50467821  0.33472727
   0.64281824  0.99993226  0.33491448
   0.89670551  0.49926725  0.32871041
   0.13818951  0.32013308  0.35167614
   0.38615441  0.81869247  0.35148409
   0.61751836  0.30990352  0.35485708
   0.89081909  0.83756424  0.34156707
   0.13318182  0.79921710  0.35633439
   0.38075565  0.29880498  0.35556363
   0.62690533  0.79346685  0.35354168
   0.89122718  0.29170294  0.35584855
   0.06675498  0.54220248  0.37505289
   0.31621970  0.04251318  0.37462511
   0.57793992  0.54438775  0.37747264
   0.81558034  0.04087763  0.37512034
   0.79975422  0.67667605  0.40188566
   0.76030556  0.41987969  0.41676769
   0.67288675  0.88106380  0.49104242
   0.44878491  0.71323302  0.52046220
   0.56976984  0.90325490  0.45968218
   0.46888331  0.60769018  0.47170556
   0.44895457  0.74096777  0.44780520
   0.61318795  0.68692073  0.51592503
   0.60960228  0.71396160  0.44187458
   0.57535752  0.88193564  0.53265174
   0.48140445  0.69599208  0.48079534
   0.60121419  0.85627454  0.49229014
   0.58078126  0.73262126  0.48290544
 
 position of ions in cartesian coordinates  (Angst):
   0.99045921  3.89727473  0.91670460
   4.22806168  9.97101307  0.91670460
   8.54575920  3.89727473  0.91670460
  11.78336239  9.97101307  0.91670460
   0.16045142 10.12552833  1.16817511
   4.47814847  4.05179071  1.16817511
   7.71575212 10.12552833  1.16817511
  12.03344917  4.05179071  1.16817511
   3.52054525  0.82335597  1.36714601
   6.75814868  6.89709425  1.36714601
  11.07584571  0.82335597  1.36714601
  14.31344795  6.89709425  1.36714601
   2.69052649  7.05173159  1.61861647
   7.00822400  0.97799331  1.61861647
  10.24582672  7.05173159  1.61861647
  14.56352424  0.97799331  1.61861647
   0.53531952 11.93298649  4.09629656
   4.85838739  5.87410200  4.10033316
   8.12290263 11.95430168  4.10475829
  12.40904157  5.86627574  4.15472840
   0.81403457  6.00708856  4.37736917
   4.04624050 12.08772476  4.36619740
   8.36748112  5.97844614  4.35719503
  11.59693173 12.08572944  4.38371719
  -0.17981245  2.79401732  4.58942169
   3.03206355  8.86511982  4.58653075
   7.36723422  2.77682637  4.57486152
  10.66790547  8.85888419  4.58148535
   3.35782429  2.93678618  4.80871375
   6.56047832  9.02486209  4.77545674
  10.93627996  2.97270878  4.88060137
  14.13677143  8.98342185  4.86399898
   1.16373991  7.78261440  7.53857999
   5.45800481  1.69470626  7.50240042
   8.68489249  7.87388595  7.26727800
  13.06265333  1.66044562  7.52727330
   1.48618778  1.95272639  7.48614389
   4.69718407  8.00851913  7.49308900
   8.98860657  1.91206181  7.52023440
  12.24757028  8.05530300  7.70933747
  -0.54547953 10.79367401  7.77333433
   3.74125583  4.71574560  7.80080266
   6.95674555 10.78412195  7.77469761
  11.43001749  4.61146722  7.97767342
  -0.26924271  4.93690489  8.04939204
   2.93212779 11.01107342  8.05650843
   7.22946635  4.85466062  8.00776937
  10.50333654 10.99760132  8.08044600
  10.05891197  6.75117023  9.89911734
   0.18232835  2.09604693  0.00000000
   3.41993094  8.16978550  0.00000000
   7.73762846  2.09604693  0.00000000
  10.97523117  8.16978550  0.00000000
   2.77584291  5.24248600  0.37900365
   6.01344586 11.31622410  0.37900365
  10.33114434  5.24248600  0.37900365
  13.56874656 11.31622410  0.37900365
   2.16152573 10.82255077  0.59691280
   6.47922326  4.74881268  0.59691280
   9.71682548 10.82255077  0.59691280
  14.03452396  4.74881268  0.59691280
   2.73983193  2.74654436  1.05910064
   5.97743511  8.82028293  1.05910064
  10.29513263  2.74654436  1.05910064
  13.53273487  8.82028293  1.05910064
   0.94100273  8.20246124  1.47622036
   5.25870037  2.12872362  1.47622036
   8.49630260  8.20246124  1.47622036
  12.81400013  2.12872362  1.47622036
   1.51930892  0.12645522  1.93840825
   4.75691175  6.20019341  1.93840825
   9.07460880  0.12645522  1.93840825
  12.31221104  6.20019341  1.93840825
   0.90515363  5.70639848  2.15631746
   4.14275646 11.78013610  2.15631746
   8.46045399  5.70639848  2.15631746
  11.69805622 11.78013610  2.15631746
   0.26091433  2.77909971  2.53532100
   3.49851704  8.85283756  2.53532100
   7.81621408  2.77909971  2.53532100
  11.05381775  8.85283756  2.53532100
  -0.21464016 10.11265383  3.20670951
   4.11326532  4.05628462  3.19839385
   7.35022809 10.13261861  3.19494796
  11.66630478  4.03953658  3.21320143
   3.39586648  1.13333515  3.50242591
   6.63204257  7.20820865  3.51159899
  10.95455391  1.13702827  3.52172195
  14.19597862  7.20631280  3.52296551
   2.80954382  6.70789667  3.84611425
   7.14102908  0.61795276  3.85093689
  10.36158854  6.69916555  3.85327078
  14.67869652  0.63388436  3.85306139
   2.28734284 10.81403619  4.34086567
   6.59709545  4.72731806  4.31935718
   9.84464799 10.79345970  4.33593977
  14.16451736  4.73851323  4.35599048
   1.60184443  4.06672699  4.61178763
   4.82092496 10.14417970  4.62852251
   9.13279196  4.06779345  4.66060025
  12.39029851 10.15710296  4.64925254
   1.05318800  8.14906242  5.15258826
   5.36427036  2.05749406  5.09944284
   8.61168229  8.14484084  5.10388805
  12.92995278  2.05750535  5.18299461
   1.60598247  1.57956981  5.36424684
   4.81139710  7.66166267  5.36578214
   9.15105072  1.59100453  5.39500909
  12.38028085  7.67011324  5.39394588
  -0.24977000 10.84670805  5.74893387
   4.06315878  4.80635035  5.76831610
   7.30449107 10.85071637  5.74958085
  11.62189408  4.76762498  5.78379624
   0.51954310  5.97428785  6.44561471
   3.69437242 12.05106224  6.43341971
   7.93204956  5.99281266  6.43241344
  11.15895322 12.06254415  6.43760476
   2.99113222  9.11167055  6.77371775
   7.24369858  3.03438381  6.73890953
  10.51067259  9.05477142  6.78392988
  -0.18902092  3.05015633  6.74186015
   3.48667290  2.59846941  6.97078992
   6.69016352  8.64877107  6.93853147
  11.01080989  2.59991782  7.10011630
  14.26962859  8.62879899  7.05010350
   3.01977883  6.72849195  7.89636892
   7.28435296  0.63592272  7.83011907
  10.43116429  6.61712882  7.79155474
  14.90225325  0.67224723  7.87355434
   2.22915313  0.04439901  7.91875525
   5.47751352  6.13056667  8.02421616
   8.63334812 12.14665346  8.02870404
  13.01050279  6.06483713  7.87997766
   1.74235245  3.88880903  8.43052127
   4.95075972  9.94504744  8.42591750
   8.99634813  3.76454567  8.50677605
  12.55616274 10.17429187  8.18818277
   1.14922725  9.70847084  8.54219083
   5.43070888  3.62972642  8.52371388
   8.61589677  9.63861977  8.47524281
  13.15191113  3.54345453  8.53054393
   0.42307789  6.58639179  8.99091824
   4.73235134  0.51642786  8.98066316
   8.14502895  6.61293728  9.04892530
  12.27975694  0.49656008  8.99253500
  11.35389225  8.21990637  9.63416418
  11.03516371  5.10047860  9.99092211
   9.21609053 10.70270169 11.77146564
   6.01105025  8.66398123 12.47672844
   7.63396368 10.97226761 11.01968534
   6.42874549  7.38190211 11.30791460
   5.98365789  9.00088850 10.73496563
   8.52369880  8.34435331 12.36796150
   8.44031036  8.67283171 10.59279459
   7.74142371 10.71329235 12.76894086
   6.52257304  8.45454739 11.52581857
   8.15984983 10.40157477 11.80137649
   7.98465327  8.89949945 11.57640261
 


--------------------------------------------------------------------------------------------------------


 k-point  1 :   0.2500 0.2500 0.0000  plane waves:  111683
 k-point  2 :  -0.2500 0.2500 0.0000  plane waves:  111725

 maximum and minimum number of plane-waves per node :      7001     6957

 maximum number of plane-waves:    111725
 maximum index in each direction: 
   IXMAX=   27   IYMAX=   21   IZMAX=   43
   IXMIN=  -27   IYMIN=  -22   IZMIN=  -43


 real space projection operators:
  total allocation   :      22027.99 KBytes
  max/ min on nodes  :       1622.80       1256.11


 parallel 3D FFT for wavefunctions:
    minimum data exchange during FFTs selected (reduces bandwidth)
 parallel 3D FFT for charge:
    minimum data exchange during FFTs selected (reduces bandwidth)


 total amount of memory used by VASP MPI-rank0    91919. kBytes
=======================================================================

   base      :      30000. kBytes
   nonlr-proj:       8728. kBytes
   fftplans  :       4220. kBytes
   grid      :      12288. kBytes
   one-center:        311. kBytes
   wavefun   :      36372. kBytes
 
     INWAV:  cpu time   37.5229: real time   37.5119
 Broyden mixing: mesh for mixing (old mesh)
   NGX = 55   NGY = 45   NGZ = 87
  (NGX  =168   NGY  =140   NGZ  =280)
  gives a total of 215325 points

 initial charge density was supplied:
 number of electron    1196.0000021 magnetization      -0.0000000
 keeping initial charge density in first step


--------------------------------------------------------------------------------------------------------


 Maximum index for non-local projection operator          418
 Maximum index for augmentation-charges          475 (set IRDMAX)


--------------------------------------------------------------------------------------------------------


 First call to EWALD:  gamma=   0.108
 Maximum number of real-space cells 3x 4x 2
 Maximum number of reciprocal cells 3x 2x 4

    FEWALD:  cpu time    0.0326: real time    0.0328


--------------------------------------- Iteration      1(   1)  ---------------------------------------


    POTLOK:  cpu time    0.4620: real time    0.4752
    SETDIJ:  cpu time    0.0762: real time    0.0773
     EDDAV:  cpu time   25.8760: real time   25.8691
       DOS:  cpu time    0.0023: real time    0.0023
    CHARGE:  cpu time    1.0202: real time    1.0203
    MIXING:  cpu time    0.0160: real time    0.0169
    --------------------------------------------
      LOOP:  cpu time   27.4531: real time   27.4614

 eigenvalue-minimisations  :  6336
 total energy-change (2. order) :-0.1329187E+04  (-0.1304915E+00)
 number of electron    1196.0000021 magnetization      -0.0000000
 augmentation part       73.5972275 magnetization      -0.0000001

 Broyden mixing:
  rms(total) = 0.95515E-01    rms(broyden)= 0.95434E-01
  rms(prec ) = 0.96713E-01
  weight for this iteration     100.00

 Free energy of the ion-electron system (eV)
  ---------------------------------------------------
  alpha Z        PSCENC =      2113.54737298
  Ewald energy   TEWEN  =    395451.52069420
  -Hartree energ DENC   =   -491992.27441809
  -exchange      EXHF   =         0.00000000
  -V(xc)+E(xc)   XCENC  =      5279.43379464
  PAW double counting   =    129259.73462064  -128579.37641535
  entropy T*S    EENTRO =        -0.00000000
  eigenvalues    EBANDS =    -18700.67554584
  atomic energy  EATOM  =    105838.90241102
  Solvation  Ediel_sol  =         0.00000000
  ---------------------------------------------------
  free energy    TOTEN  =     -1329.18748581 eV

  energy without entropy =    -1329.18748581  energy(sigma->0) =    -1329.18748581


--------------------------------------------------------------------------------------------------------




--------------------------------------- Iteration      1(   2)  ---------------------------------------


    POTLOK:  cpu time    0.4193: real time    0.4463
    SETDIJ:  cpu time    0.0748: real time    0.0747
     EDDAV:  cpu time   25.5740: real time   25.5488
       DOS:  cpu time    0.0020: real time    0.0020
    CHARGE:  cpu time    1.0327: real time    1.0319
    MIXING:  cpu time    0.0103: real time    0.0122
    --------------------------------------------
      LOOP:  cpu time   27.1131: real time   27.1158

 eigenvalue-minimisations  :  6176
 total energy-change (2. order) :-0.1745698E+01  (-0.1163665E+00)
 number of electron    1196.0000021 magnetization      -0.0000000
 augmentation part       73.5194452 magnetization      -0.0000001

 Broyden mixing:
  rms(total) = 0.40865E-01    rms(broyden)= 0.40746E-01
  rms(prec ) = 0.42952E-01
  weight for this iteration     100.00

 eigenvalues of (default mixing * dielectric matrix)
  average eigenvalue GAMMA=   0.7368
  0.7368

 Free energy of the ion-electron system (eV)
  ---------------------------------------------------
  alpha Z        PSCENC =      2113.54737298
  Ewald energy   TEWEN  =    395451.52069420
  -Hartree energ DENC   =   -491994.18658314
  -exchange      EXHF   =         0.00000000
  -V(xc)+E(xc)   XCENC  =      5279.52920595
  PAW double counting   =    129115.02924182  -128433.62271545
  entropy T*S    EENTRO =        -0.00000000
  eigenvalues    EBANDS =    -18701.65281072
  atomic energy  EATOM  =    105838.90241102
  Solvation  Ediel_sol  =         0.00000000
  ---------------------------------------------------
  free energy    TOTEN  =     -1330.93318334 eV

  energy without entropy =    -1330.93318334  energy(sigma->0) =    -1330.93318334


--------------------------------------------------------------------------------------------------------




--------------------------------------- Iteration      1(   3)  ---------------------------------------


    POTLOK:  cpu time    0.4197: real time    0.4483
    SETDIJ:  cpu time    0.0751: real time    0.0751
     EDDAV:  cpu time   27.3177: real time   27.2926
       DOS:  cpu time    0.0020: real time    0.0020
    CHARGE:  cpu time    1.0731: real time    1.0721
    MIXING:  cpu time    0.0080: real time    0.0080
    --------------------------------------------
      LOOP:  cpu time   28.8956: real time   28.8980

 eigenvalue-minimisations  :  6720
 total energy-change (2. order) :-0.9803277E-02  (-0.4088687E-02)
 number of electron    1196.0000021 magnetization      -0.0000000
 augmentation part       73.5515697 magnetization       0.0000000

 Broyden mixing:
  rms(total) = 0.27777E-01    rms(broyden)= 0.27759E-01
  rms(prec ) = 0.28183E-01
  weight for this iteration     100.00

 eigenvalues of (default mixing * dielectric matrix)
  average eigenvalue GAMMA=   0.6931
  0.6931  0.6931

 Free energy of the ion-electron system (eV)
  ---------------------------------------------------
  alpha Z        PSCENC =      2113.54737298
  Ewald energy   TEWEN  =    395451.52069420
  -Hartree energ DENC   =   -491991.58939485
  -exchange      EXHF   =         0.00000000
  -V(xc)+E(xc)   XCENC  =      5279.33505845
  PAW double counting   =    129142.73560383  -128460.58102868
  entropy T*S    EENTRO =        -0.00000000
  eigenvalues    EBANDS =    -18704.81370355
  atomic energy  EATOM  =    105838.90241102
  Solvation  Ediel_sol  =         0.00000000
  ---------------------------------------------------
  free energy    TOTEN  =     -1330.94298662 eV

  energy without entropy =    -1330.94298662  energy(sigma->0) =    -1330.94298662


--------------------------------------------------------------------------------------------------------




--------------------------------------- Iteration      1(   4)  ---------------------------------------


    POTLOK:  cpu time    0.4488: real time    0.4485
    SETDIJ:  cpu time    0.0751: real time    0.0750
     EDDAV:  cpu time   23.9225: real time   23.9007
       DOS:  cpu time    0.0023: real time    0.0023
    CHARGE:  cpu time    1.0357: real time    1.0347
    MIXING:  cpu time    0.0088: real time    0.0092
    --------------------------------------------
      LOOP:  cpu time   25.4931: real time   25.4703

 eigenvalue-minimisations  :  5632
 total energy-change (2. order) :-0.4252719E-04  (-0.2125848E-03)
 number of electron    1196.0000021 magnetization      -0.0000000
 augmentation part       73.5476773 magnetization       0.0000000

 Broyden mixing:
  rms(total) = 0.22466E-01    rms(broyden)= 0.22465E-01
  rms(prec ) = 0.22760E-01
  weight for this iteration     100.00

 eigenvalues of (default mixing * dielectric matrix)
  average eigenvalue GAMMA=   0.6854
  0.7714  0.7714  0.5133

 Free energy of the ion-electron system (eV)
  ---------------------------------------------------
  alpha Z        PSCENC =      2113.54737298
  Ewald energy   TEWEN  =    395451.52069420
  -Hartree energ DENC   =   -491992.26613390
  -exchange      EXHF   =         0.00000000
  -V(xc)+E(xc)   XCENC  =      5279.40219961
  PAW double counting   =    129172.09559310  -128489.89035173
  entropy T*S    EENTRO =        -0.00000000
  eigenvalues    EBANDS =    -18704.25481442
  atomic energy  EATOM  =    105838.90241102
  Solvation  Ediel_sol  =         0.00000000
  ---------------------------------------------------
  free energy    TOTEN  =     -1330.94302914 eV

  energy without entropy =    -1330.94302914  energy(sigma->0) =    -1330.94302914


--------------------------------------------------------------------------------------------------------




--------------------------------------- Iteration      1(   5)  ---------------------------------------


    POTLOK:  cpu time    0.4333: real time    0.4480
    SETDIJ:  cpu time    0.0749: real time    0.0749
     EDDAV:  cpu time   27.2929: real time   27.2678
       DOS:  cpu time    0.0021: real time    0.0021
    CHARGE:  cpu time    1.0396: real time    1.0386
    MIXING:  cpu time    0.0089: real time    0.0089
    --------------------------------------------
      LOOP:  cpu time   28.8518: real time   28.8403

 eigenvalue-minimisations  :  6720
 total energy-change (2. order) :-0.1056283E-04  (-0.2007512E-04)
 number of electron    1196.0000021 magnetization      -0.0000000
 augmentation part       73.5537124 magnetization      -0.0000000

 Broyden mixing:
  rms(total) = 0.18911E-01    rms(broyden)= 0.18911E-01
  rms(prec ) = 0.19161E-01
  weight for this iteration     100.00

 eigenvalues of (default mixing * dielectric matrix)
  average eigenvalue GAMMA=   0.7210
  0.8983  0.8983  0.5437  0.5437

 Free energy of the ion-electron system (eV)
  ---------------------------------------------------
  alpha Z        PSCENC =      2113.54737298
  Ewald energy   TEWEN  =    395451.52069420
  -Hartree energ DENC   =   -491992.28411576
  -exchange      EXHF   =         0.00000000
  -V(xc)+E(xc)   XCENC  =      5279.40604712
  PAW double counting   =    129189.95978825  -128507.71884559
  entropy T*S    EENTRO =        -0.00000000
  eigenvalues    EBANDS =    -18704.27639192
  atomic energy  EATOM  =    105838.90241102
  Solvation  Ediel_sol  =         0.00000000
  ---------------------------------------------------
  free energy    TOTEN  =     -1330.94303971 eV

  energy without entropy =    -1330.94303971  energy(sigma->0) =    -1330.94303971


--------------------------------------------------------------------------------------------------------




--------------------------------------- Iteration      1(   6)  ---------------------------------------


    POTLOK:  cpu time    0.4466: real time    0.4466
    SETDIJ:  cpu time    0.0751: real time    0.0751
     EDDAV:  cpu time   27.3726: real time   27.3500
       DOS:  cpu time    0.0025: real time    0.0025
    CHARGE:  cpu time    1.0643: real time    1.0633
    MIXING:  cpu time    0.0093: real time    0.0093
    --------------------------------------------
      LOOP:  cpu time   28.9703: real time   28.9469

 eigenvalue-minimisations  :  6720
 total energy-change (2. order) :-0.1344307E-04  (-0.2196151E-05)
 number of electron    1196.0000021 magnetization      -0.0000000
 augmentation part       73.5552292 magnetization      -0.0000000

 Broyden mixing:
  rms(total) = 0.16425E-01    rms(broyden)= 0.16425E-01
  rms(prec ) = 0.16653E-01
  weight for this iteration     100.00

 eigenvalues of (default mixing * dielectric matrix)
  average eigenvalue GAMMA=   0.7993
  1.1330  1.1330  0.5239  0.6034  0.6034

 Free energy of the ion-electron system (eV)
  ---------------------------------------------------
  alpha Z        PSCENC =      2113.54737298
  Ewald energy   TEWEN  =    395451.52069420
  -Hartree energ DENC   =   -491992.37807406
  -exchange      EXHF   =         0.00000000
  -V(xc)+E(xc)   XCENC  =      5279.41371468
  PAW double counting   =    129203.92648857  -128521.67456154
  entropy T*S    EENTRO =        -0.00000000
  eigenvalues    EBANDS =    -18704.20109899
  atomic energy  EATOM  =    105838.90241102
  Solvation  Ediel_sol  =         0.00000000
  ---------------------------------------------------
  free energy    TOTEN  =     -1330.94305315 eV

  energy without entropy =    -1330.94305315  energy(sigma->0) =    -1330.94305315


--------------------------------------------------------------------------------------------------------




--------------------------------------- Iteration      1(   7)  ---------------------------------------


    POTLOK:  cpu time    0.4223: real time    0.4479
    SETDIJ:  cpu time    0.0751: real time    0.0750
     EDDAV:  cpu time   27.0473: real time   27.0218
       DOS:  cpu time    0.0023: real time    0.0023
    CHARGE:  cpu time    1.0345: real time    1.0336
    MIXING:  cpu time    0.0103: real time    0.0103
    --------------------------------------------
      LOOP:  cpu time   28.5918: real time   28.5909

 eigenvalue-minimisations  :  6592
 total energy-change (2. order) :-0.1015828E-04  (-0.2371165E-05)
 number of electron    1196.0000021 magnetization      -0.0000000
 augmentation part       73.5563538 magnetization      -0.0000000

 Broyden mixing:
  rms(total) = 0.12981E-01    rms(broyden)= 0.12981E-01
  rms(prec ) = 0.13160E-01
  weight for this iteration     100.00

 eigenvalues of (default mixing * dielectric matrix)
  average eigenvalue GAMMA=   0.8514
  1.3328  1.3328  0.6769  0.6769  0.5444  0.5444

 Free energy of the ion-electron system (eV)
  ---------------------------------------------------
  alpha Z        PSCENC =      2113.54737298
  Ewald energy   TEWEN  =    395451.52069420
  -Hartree energ DENC   =   -491992.38882263
  -exchange      EXHF   =         0.00000000
  -V(xc)+E(xc)   XCENC  =      5279.41942406
  PAW double counting   =    129222.25611180  -128539.99148901
  entropy T*S    EENTRO =        -0.00000000
  eigenvalues    EBANDS =    -18704.20876573
  atomic energy  EATOM  =    105838.90241102
  Solvation  Ediel_sol  =         0.00000000
  ---------------------------------------------------
  free energy    TOTEN  =     -1330.94306331 eV

  energy without entropy =    -1330.94306331  energy(sigma->0) =    -1330.94306331


--------------------------------------------------------------------------------------------------------




--------------------------------------- Iteration      1(   8)  ---------------------------------------


    POTLOK:  cpu time    0.4520: real time    0.4521
    SETDIJ:  cpu time    0.0751: real time    0.0751
     EDDAV:  cpu time   25.6011: real time   25.5753
       DOS:  cpu time    0.0026: real time    0.0026
    CHARGE:  cpu time    1.0356: real time    1.0348
    MIXING:  cpu time    0.0104: real time    0.0103
    --------------------------------------------
      LOOP:  cpu time   27.1767: real time   27.1503

 eigenvalue-minimisations  :  6112
 total energy-change (2. order) :-0.6628150E-05  (-0.1652657E-05)
 number of electron    1196.0000021 magnetization      -0.0000000
 augmentation part       73.5579985 magnetization      -0.0000000

 Broyden mixing:
  rms(total) = 0.10716E-01    rms(broyden)= 0.10716E-01
  rms(prec ) = 0.10856E-01
  weight for this iteration     100.00

 eigenvalues of (default mixing * dielectric matrix)
  average eigenvalue GAMMA=   0.9014
  1.5531  1.5531  0.7586  0.7586  0.5283  0.5790  0.5790

 Free energy of the ion-electron system (eV)
  ---------------------------------------------------
  alpha Z        PSCENC =      2113.54737298
  Ewald energy   TEWEN  =    395451.52069420
  -Hartree energ DENC   =   -491992.39409102
  -exchange      EXHF   =         0.00000000
  -V(xc)+E(xc)   XCENC  =      5279.42260801
  PAW double counting   =    129234.47891307  -128552.20432273
  entropy T*S    EENTRO =        -0.00000000
  eigenvalues    EBANDS =    -18704.21665545
  atomic energy  EATOM  =    105838.90241102
  Solvation  Ediel_sol  =         0.00000000
  ---------------------------------------------------
  free energy    TOTEN  =     -1330.94306994 eV

  energy without entropy =    -1330.94306994  energy(sigma->0) =    -1330.94306994


--------------------------------------------------------------------------------------------------------




--------------------------------------- Iteration      1(   9)  ---------------------------------------


    POTLOK:  cpu time    0.4223: real time    0.4517
    SETDIJ:  cpu time    0.0752: real time    0.0752
     EDDAV:  cpu time   18.7172: real time   18.7012
       DOS:  cpu time    0.0022: real time    0.0022
    CHARGE:  cpu time    1.0333: real time    1.0325
    MIXING:  cpu time    0.0108: real time    0.0108
    --------------------------------------------
      LOOP:  cpu time   20.2609: real time   20.2735

 eigenvalue-minimisations  :  3872
 total energy-change (2. order) :-0.4929083E-05  (-0.3691318E-06)
 number of electron    1196.0000021 magnetization      -0.0000000
 augmentation part       73.5588079 magnetization      -0.0000000

 Broyden mixing:
  rms(total) = 0.93136E-02    rms(broyden)= 0.93136E-02
  rms(prec ) = 0.94386E-02
  weight for this iteration     100.00

 eigenvalues of (default mixing * dielectric matrix)
  average eigenvalue GAMMA=   1.0571
  2.0793  2.0793  0.9117  0.9117  0.6595  0.6595  0.5779  0.5779

 Free energy of the ion-electron system (eV)
  ---------------------------------------------------
  alpha Z        PSCENC =      2113.54737298
  Ewald energy   TEWEN  =    395451.52069420
  -Hartree energ DENC   =   -491992.38812532
  -exchange      EXHF   =         0.00000000
  -V(xc)+E(xc)   XCENC  =      5279.42375589
  PAW double counting   =    129242.15887825  -128559.88271557
  entropy T*S    EENTRO =        -0.00000000
  eigenvalues    EBANDS =    -18704.22534632
  atomic energy  EATOM  =    105838.90241102
  Solvation  Ediel_sol  =         0.00000000
  ---------------------------------------------------
  free energy    TOTEN  =     -1330.94307487 eV

  energy without entropy =    -1330.94307487  energy(sigma->0) =    -1330.94307487


--------------------------------------------------------------------------------------------------------




--------------------------------------- Iteration      1(  10)  ---------------------------------------


    POTLOK:  cpu time    0.4535: real time    0.4533
    SETDIJ:  cpu time    0.0747: real time    0.0747
     EDDAV:  cpu time   26.4668: real time   26.4428
       DOS:  cpu time    0.0024: real time    0.0024
    CHARGE:  cpu time    1.0370: real time    1.0361
    MIXING:  cpu time    0.0112: real time    0.0112
    --------------------------------------------
      LOOP:  cpu time   28.0455: real time   28.0205

 eigenvalue-minimisations  :  6400
 total energy-change (2. order) :-0.6977905E-05  (-0.2690084E-05)
 number of electron    1196.0000021 magnetization      -0.0000000
 augmentation part       73.5601455 magnetization       0.0000000

 Broyden mixing:
  rms(total) = 0.54683E-02    rms(broyden)= 0.54683E-02
  rms(prec ) = 0.55446E-02
  weight for this iteration     100.00

 eigenvalues of (default mixing * dielectric matrix)
  average eigenvalue GAMMA=   1.1206
  2.4064  2.4064  1.0556  1.0556  0.6872  0.6872  0.5892  0.5988  0.5988

 Free energy of the ion-electron system (eV)
  ---------------------------------------------------
  alpha Z        PSCENC =      2113.54737298
  Ewald energy   TEWEN  =    395451.52069420
  -Hartree energ DENC   =   -491992.37103668
  -exchange      EXHF   =         0.00000000
  -V(xc)+E(xc)   XCENC  =      5279.42731840
  PAW double counting   =    129262.48970207  -128580.20484805
  entropy T*S    EENTRO =        -0.00000000
  eigenvalues    EBANDS =    -18704.25469578
  atomic energy  EATOM  =    105838.90241102
  Solvation  Ediel_sol  =         0.00000000
  ---------------------------------------------------
  free energy    TOTEN  =     -1330.94308184 eV

  energy without entropy =    -1330.94308184  energy(sigma->0) =    -1330.94308184


--------------------------------------------------------------------------------------------------------




--------------------------------------- Iteration      1(  11)  ---------------------------------------


    POTLOK:  cpu time    0.4411: real time    0.4506
    SETDIJ:  cpu time    0.0749: real time    0.0749
     EDDAV:  cpu time   27.6861: real time   27.6617
       DOS:  cpu time    0.0024: real time    0.0024
    CHARGE:  cpu time    1.0415: real time    1.0409
    MIXING:  cpu time    0.0119: real time    0.0119
    --------------------------------------------
      LOOP:  cpu time   29.2579: real time   29.2424

 eigenvalue-minimisations  :  6784
 total energy-change (2. order) :-0.5195077E-05  (-0.2859796E-05)
 number of electron    1196.0000021 magnetization       0.0000000
 augmentation part       73.5619757 magnetization       0.0000000

 Broyden mixing:
  rms(total) = 0.19489E-02    rms(broyden)= 0.19487E-02
[...]
   0.453E+02 0.343E+02 -.139E+04   -.492E+02 -.359E+02 0.139E+04   0.389E+01 0.165E+01 -.471E+01   0.109E-03 -.582E-03 -.219E-03
   0.576E+02 0.151E+02 -.134E+04   -.611E+02 -.171E+02 0.134E+04   0.349E+01 0.196E+01 -.396E+01   0.180E-03 -.497E-03 -.454E-03
   -.978E+01 0.830E+02 -.101E+04   0.969E+01 -.865E+02 0.995E+03   0.947E-01 0.346E+01 0.104E+02   0.444E-03 0.286E-04 -.485E-03
   -.143E+02 0.158E+02 -.139E+04   0.119E+02 -.182E+02 0.139E+04   0.242E+01 0.241E+01 -.483E+01   0.338E-04 -.493E-03 -.115E-03
   -.208E+02 -.386E+02 -.138E+04   0.239E+02 0.398E+02 0.138E+04   -.309E+01 -.129E+01 -.285E+01   -.271E-03 0.154E-03 -.570E-03
   0.373E+02 -.518E+01 -.139E+04   -.341E+02 0.611E+01 0.139E+04   -.320E+01 -.941E+00 -.426E+01   -.408E-03 0.389E-04 -.525E-03
   -.217E+02 -.725E+02 -.137E+04   0.262E+02 0.735E+02 0.137E+04   -.456E+01 -.105E+01 -.436E+01   0.554E-04 0.113E-03 -.489E-03
   -.133E+03 -.162E+02 -.123E+04   0.136E+03 0.192E+02 0.123E+04   -.365E+01 -.302E+01 0.293E+00   -.149E-03 0.265E-03 -.457E-03
   -.274E+02 -.334E+01 -.163E+04   0.277E+02 0.677E+01 0.164E+04   -.290E+00 -.343E+01 -.864E+01   0.106E-03 0.631E-04 -.373E-03
   0.523E+02 -.416E+02 -.157E+04   -.519E+02 0.454E+02 0.157E+04   -.439E+00 -.383E+01 -.838E+01   0.152E-03 0.186E-03 -.350E-03
   -.772E+01 0.738E+02 -.156E+04   0.145E+02 -.697E+02 0.157E+04   -.673E+01 -.417E+01 -.103E+02   0.330E-03 -.224E-04 -.387E-03
   -.939E+02 -.993E+02 -.145E+04   0.933E+02 0.103E+03 0.146E+04   0.567E+00 -.347E+01 -.530E+01   0.239E-03 0.212E-03 -.437E-03
   -.216E+02 0.675E+01 -.167E+04   0.231E+02 -.815E+01 0.168E+04   -.147E+01 0.140E+01 -.110E+02   -.544E-03 0.259E-03 -.308E-04
   0.382E+02 0.474E+02 -.166E+04   -.368E+02 -.495E+02 0.167E+04   -.139E+01 0.211E+01 -.114E+02   -.528E-03 0.102E-03 -.411E-03
   0.193E+02 -.723E+02 -.152E+04   -.163E+02 0.720E+02 0.153E+04   -.300E+01 0.288E+00 -.113E+02   -.369E-04 0.212E-03 -.591E-03
   -.106E+03 0.795E+02 -.163E+04   0.109E+03 -.813E+02 0.164E+04   -.332E+01 0.186E+01 -.117E+02   -.144E-03 0.125E-03 -.886E-04
   -.503E+02 -.377E+02 -.182E+04   0.501E+02 0.414E+02 0.183E+04   0.140E+00 -.371E+01 -.184E+02   -.261E-03 -.161E-03 -.754E-03
   0.333E+02 -.572E+02 -.182E+04   -.331E+02 0.611E+02 0.183E+04   -.200E+00 -.387E+01 -.182E+02   -.250E-03 -.555E-04 -.760E-03
   0.226E+03 0.416E+02 -.161E+04   -.236E+03 -.398E+02 0.162E+04   0.105E+02 -.184E+01 -.639E+01   0.877E-04 -.140E-03 -.705E-03
   -.403E+02 -.812E+02 -.180E+04   0.404E+02 0.858E+02 0.182E+04   -.738E-01 -.463E+01 -.184E+02   0.255E-03 -.226E-03 -.768E-03
   -.197E+03 -.197E+03 -.176E+04   0.205E+03 0.211E+03 0.177E+04   -.752E+01 -.137E+02 -.951E+01   0.458E-03 -.368E-03 -.783E-03
   -.127E+03 0.247E+03 -.182E+04   0.135E+03 -.261E+03 0.183E+04   -.800E+01 0.145E+02 -.128E+02   0.203E-03 0.371E-03 -.894E-03
   -.557E+02 -.364E+02 -.233E+03   0.610E+02 0.380E+02 0.233E+03   -.532E+01 -.159E+01 0.133E+00   0.385E-04 0.209E-04 -.420E-05
   0.495E+02 -.459E+01 -.247E+03   -.521E+02 0.561E+01 0.252E+03   0.261E+01 -.103E+01 -.473E+01   -.203E-04 0.407E-05 0.176E-04
   0.305E+02 -.529E+02 -.220E+03   -.331E+02 0.557E+02 0.216E+03   0.255E+01 -.289E+01 0.378E+01   0.693E-05 0.358E-04 -.176E-04
   0.334E+02 0.595E+02 -.237E+03   -.339E+02 -.649E+02 0.236E+03   0.523E+00 0.538E+01 0.114E+01   -.270E-04 -.124E-04 0.109E-05
   0.533E+02 -.219E+02 -.224E+03   -.560E+02 0.245E+02 0.220E+03   0.275E+01 -.270E+01 0.391E+01   -.306E-04 0.568E-05 -.717E-05
   -.270E+02 0.293E+02 -.257E+03   0.296E+02 -.319E+02 0.261E+03   -.254E+01 0.260E+01 -.390E+01   0.903E-05 0.134E-04 0.270E-04
   -.958E+01 -.874E+00 -.230E+03   0.115E+02 0.843E-01 0.225E+03   -.195E+01 0.789E+00 0.486E+01   0.494E-05 0.238E-04 0.153E-04
   0.216E+02 -.355E+02 -.240E+03   -.236E+02 0.371E+02 0.244E+03   0.209E+01 -.163E+01 -.485E+01   0.398E-05 0.881E-05 0.131E-04
   0.147E+03 0.370E+02 -.947E+03   -.148E+03 -.370E+02 0.947E+03   0.308E+00 0.458E-01 0.672E-01   -.810E-04 0.505E-05 0.468E-04
   -.559E+01 -.131E+03 -.933E+03   0.579E+01 0.131E+03 0.933E+03   -.197E+00 -.123E+00 -.286E+00   0.676E-04 0.752E-04 0.335E-04
   -.681E+01 0.133E+02 -.966E+03   0.592E+01 -.127E+02 0.966E+03   0.891E+00 -.631E+00 -.552E-01   0.148E-04 0.535E-04 0.102E-03
 -----------------------------------------------------------------------------------------------
   0.259E+02 0.249E+02 0.716E+02   -.210E-12 0.512E-12 0.298E-10   -.258E+02 -.254E+02 -.716E+02   0.275E-02 0.153E-02 0.224E-01
 
 
 POSITION                                       TOTAL-FORCE (eV/Angst)
 -----------------------------------------------------------------------------------
      0.99046      3.89727      0.91670        -1.495509     -1.857721     -0.675899
      4.22806      9.97101      0.91670        -1.507806     -1.881317     -0.746851
      8.54576      3.89727      0.91670        -1.348801     -1.942056     -0.783784
     11.78336      9.97101      0.91670        -1.341743     -1.837170     -0.729174
      0.16045     10.12553      1.16818        -0.261865      1.646486      0.429855
      4.47815      4.05179      1.16818        -0.209757      1.718420      0.194644
      7.71575     10.12553      1.16818        -0.091552      1.772760      0.126558
     12.03345      4.05179      1.16818        -0.123314      1.824719      0.533301
      3.52055      0.82336      1.36715        -0.862182     -0.877643      1.550631
      6.75815      6.89709      1.36715        -0.859626     -0.875256      1.516381
     11.07585      0.82336      1.36715        -0.745320     -0.829594      1.717176
     14.31345      6.89709      1.36715        -0.950293     -0.954024      1.801444
      2.69053      7.05173      1.61862         1.448657      0.465108     -2.488526
      7.00822      0.97799      1.61862         1.582693      0.429526     -2.483142
     10.24583      7.05173      1.61862         1.778604      0.412624     -2.433993
     14.56352      0.97799      1.61862         1.516682      0.502096     -2.436273
      0.53532     11.93299      4.09630         0.000247     -0.000521     -0.001058
      4.85839      5.87410      4.10033        -0.001711     -0.001632     -0.002214
      8.12290     11.95430      4.10476         0.003847      0.002974      0.003802
     12.40904      5.86628      4.15473         0.002905      0.002955      0.002848
      0.81403      6.00709      4.37737        -0.000969     -0.000885      0.000894
      4.04624     12.08772      4.36620        -0.002224      0.001206     -0.002700
      8.36748      5.97845      4.35720         0.000010      0.000248      0.002714
     11.59693     12.08573      4.38372         0.002827     -0.001139     -0.003484
     -0.17981      2.79402      4.58942         0.001307      0.000067     -0.003033
      3.03206      8.86512      4.58653         0.000221     -0.001589     -0.002786
      7.36723      2.77683      4.57486        -0.001486      0.003338      0.001065
     10.66791      8.85888      4.58149         0.001931     -0.001144      0.000136
      3.35782      2.93679      4.80871        -0.003446      0.000222     -0.000658
      6.56048      9.02486      4.77546         0.000595     -0.001821      0.004374
     10.93628      2.97271      4.88060        -0.001084      0.001921      0.000153
     14.13677      8.98342      4.86400        -0.003953      0.002436     -0.000178
      1.16374      7.78261      7.53858        -0.005084     -0.002673      0.001422
      5.45800      1.69471      7.50240         0.000963      0.001244     -0.000709
      8.68489      7.87389      7.26728         0.001388     -0.000997      0.000353
     13.06265      1.66045      7.52727         0.001450      0.002597      0.000704
      1.48619      1.95273      7.48614        -0.004899      0.003516     -0.001180
      4.69718      8.00852      7.49309         0.003958     -0.000077     -0.002010
      8.98861      1.91206      7.52023        -0.001055      0.003342      0.001492
     12.24757      8.05530      7.70934        -0.001526     -0.002449      0.001211
     -0.54548     10.79367      7.77333         0.001539     -0.001577     -0.000870
      3.74126      4.71575      7.80080         0.002280     -0.000383     -0.002293
      6.95675     10.78412      7.77470         0.002186     -0.000114      0.002844
     11.43002      4.61147      7.97767        -0.000541     -0.001720     -0.000211
     -0.26924      4.93690      8.04939        -0.003878     -0.001975      0.003924
      2.93213     11.01107      8.05651        -0.000138      0.002118      0.001552
      7.22947      4.85466      8.00777         0.002674      0.001325      0.000155
     10.50334     10.99760      8.08045        -0.000887      0.001119      0.000432
     10.05891      6.75117      9.89912         0.006079     -0.001860      0.001017
      0.18233      2.09605      0.00000         0.269463      0.969489      1.258454
      3.41993      8.16979      0.00000         0.293556      1.000505      1.259060
      7.73763      2.09605      0.00000         0.259635      0.984361      1.275688
     10.97523      8.16979      0.00000         0.233657      0.982012      1.276548
      2.77584      5.24249      0.37900         0.002082     -0.929930      0.575249
      6.01345     11.31622      0.37900        -0.036685     -0.926676      0.580220
     10.33114      5.24249      0.37900        -0.120733     -0.919928      0.572520
     13.56875     11.31622      0.37900        -0.050947     -0.925967      0.564060
      2.16153     10.82255      0.59691         0.416578      1.207640     -0.193057
      6.47922      4.74881      0.59691         0.402831      1.223182     -0.192510
      9.71683     10.82255      0.59691         0.343196      1.183962     -0.199185
     14.03452      4.74881      0.59691         0.394088      1.172228     -0.224856
      2.73983      2.74654      1.05910         1.192157     -1.031260     -0.439575
      5.97744      8.82028      1.05910         1.166912     -1.055071     -0.410785
     10.29513      2.74654      1.05910         1.106759     -1.021811     -0.460502
     13.53273      8.82028      1.05910         1.130196     -1.010164     -0.468450
      0.94100      8.20246      1.47622        -1.098298     -0.302766     -0.915786
      5.25870      2.12872      1.47622        -1.113820     -0.304712     -0.892918
      8.49630      8.20246      1.47622        -1.192446     -0.320886     -0.892131
     12.81400      2.12872      1.47622        -1.152733     -0.322367     -0.916235
      1.51931      0.12646      1.93841         0.353420     -0.091601      0.207847
      4.75691      6.20019      1.93841         0.412539     -0.020010      0.205196
      9.07461      0.12646      1.93841         0.414609     -0.030132      0.240891
     12.31221      6.20019      1.93841         0.348721     -0.086678      0.369911
      0.90515      5.70640      2.15632        -0.361882      0.320532      0.105507
      4.14276     11.78014      2.15632        -0.350017      0.323000      0.134540
      8.46045      5.70640      2.15632        -0.412776      0.298737      0.175903
     11.69806     11.78014      2.15632        -0.410469      0.316945      0.174037
      0.26091      2.77910      2.53532         0.216156      0.391299      0.504884
      3.49852      8.85284      2.53532         0.229697      0.418648      0.600012
      7.81621      2.77910      2.53532         0.234934      0.397280      0.484758
     11.05382      8.85284      2.53532         0.262458      0.385319      0.489727
     -0.21464     10.11265      3.20671         0.003910      0.007586      0.002748
      4.11327      4.05628      3.19839        -0.000182     -0.002053     -0.003117
      7.35023     10.13262      3.19495        -0.002976     -0.001518     -0.003732
     11.66630      4.03954      3.21320        -0.005215     -0.005991     -0.000971
      3.39587      1.13334      3.50243         0.005552      0.002527     -0.000788
      6.63204      7.20821      3.51160         0.006566      0.002382     -0.001005
     10.95455      1.13703      3.52172         0.003349     -0.003750     -0.001057
     14.19598      7.20631      3.52297        -0.000200      0.005080     -0.010770
      2.80954      6.70790      3.84611        -0.000764      0.001880     -0.000030
      7.14103      0.61795      3.85094         0.005108     -0.003092      0.002282
     10.36159      6.69917      3.85327         0.000599     -0.001411     -0.000484
     14.67870      0.63388      3.85306         0.003141      0.001385     -0.004839
      2.28734     10.81404      4.34087        -0.001880      0.004584     -0.006599
      6.59710      4.72732      4.31936        -0.004431      0.005361      0.003026
      9.84465     10.79346      4.33594        -0.001879      0.004395     -0.002031
     14.16452      4.73851      4.35599         0.000967      0.007485      0.000403
      1.60184      4.06673      4.61179        -0.001060     -0.001152     -0.000426
      4.82092     10.14418      4.62852        -0.003968      0.000705      0.004733
      9.13279      4.06779      4.66060        -0.004046     -0.000878      0.004290
     12.39030     10.15710      4.64925         0.002479      0.000459      0.003385
      1.05319      8.14906      5.15259         0.001935      0.006135      0.002692
      5.36427      2.05749      5.09944         0.000359     -0.000598     -0.001776
      8.61168      8.14484      5.10389        -0.005404      0.000156     -0.000309
     12.92995      2.05751      5.18299         0.000314     -0.004432     -0.000193
      1.60598      1.57957      5.36425         0.005208     -0.002211     -0.003343
      4.81140      7.66166      5.36578        -0.002311     -0.004118      0.011776
      9.15105      1.59100      5.39501        -0.005636     -0.005876      0.000564
     12.38028      7.67011      5.39395        -0.000226     -0.012259     -0.003192
     -0.24977     10.84671      5.74893        -0.002724     -0.000976     -0.001508
      4.06316      4.80635      5.76832         0.002901      0.005160      0.013831
      7.30449     10.85072      5.74958        -0.003399      0.004262     -0.001445
     11.62189      4.76762      5.78380         0.001888      0.006252     -0.003228
      0.51954      5.97429      6.44561         0.001034      0.002194     -0.004736
      3.69437     12.05106      6.43342         0.000443     -0.000102     -0.000573
      7.93205      5.99281      6.43241        -0.002525     -0.014371     -0.009034
     11.15895     12.06254      6.43760         0.002626     -0.000753      0.009868
      2.99113      9.11167      6.77372         0.001718     -0.000637      0.001593
      7.24370      3.03438      6.73891        -0.001255     -0.000384     -0.009880
     10.51067      9.05477      6.78393        -0.000650      0.002829      0.002384
     -0.18902      3.05016      6.74186        -0.001747      0.000307     -0.003954
      3.48667      2.59847      6.97079        -0.000959      0.000026      0.001631
      6.69016      8.64877      6.93853         0.000685     -0.007358      0.001808
     11.01081      2.59992      7.10012         0.001783      0.000557      0.005248
     14.26963      8.62880      7.05010         0.005011      0.001102     -0.000432
      3.01978      6.72849      7.89637        -0.002577      0.007855      0.004602
      7.28435      0.63592      7.83012        -0.006185     -0.003399      0.006045
     10.43116      6.61713      7.79155         0.004888     -0.001630     -0.009360
     14.90225      0.67225      7.87355         0.002600      0.000890      0.000166
      2.22915      0.04440      7.91876         0.004088     -0.002534      0.000490
      5.47751      6.13057      8.02422         0.001657      0.001598     -0.000112
      8.63335     12.14665      8.02870         0.000293     -0.010149     -0.000508
     13.01050      6.06484      7.87998         0.004613     -0.007309     -0.000797
      1.74235      3.88881      8.43052         0.001218      0.002603      0.002653
      4.95076      9.94505      8.42592        -0.001128     -0.007089      0.003230
      8.99635      3.76455      8.50678         0.003714      0.001428     -0.007689
     12.55616     10.17429      8.18818        -0.003314      0.004667      0.000270
      1.14923      9.70847      8.54219         0.001812     -0.003500      0.003087
      5.43071      3.62973      8.52371        -0.002748      0.004424      0.003475
      8.61590      9.63862      8.47524         0.001375      0.004843      0.014938
     13.15191      3.54345      8.53054         0.002582     -0.003556      0.001929
      0.42308      6.58639      8.99092         0.002335      0.008591     -0.012720
      4.73235      0.51643      8.98066         0.006076     -0.003788     -0.000256
      8.14503      6.61294      9.04893        -0.002468     -0.002508     -0.000140
     12.27976      0.49656      8.99253         0.000173      0.000436     -0.001640
     11.35389      8.21991      9.63416         0.003481     -0.000416      0.001592
     11.03516      5.10048      9.99092        -0.004306      0.007018     -0.003406
      9.21609     10.70270     11.77147         0.007710     -0.000094      0.011763
      6.01105      8.66398     12.47673         0.007977     -0.007975     -0.001047
      7.63396     10.97227     11.01969         0.005476      0.002127      0.008583
      6.42875      7.38190     11.30791         0.007997     -0.000651     -0.002659
      5.98366      9.00089     10.73497         0.007658     -0.001771      0.007964
      8.52370      8.34435     12.36796         0.001414      0.000879     -0.000695
      8.44031      8.67283     10.59279         0.006521      0.005318      0.006153
      7.74142     10.71329     12.76894         0.001051     -0.001264      0.006238
      6.52257      8.45455     11.52582         0.001947      0.005814     -0.000017
      8.15985     10.40157     11.80138         0.002977      0.002825      0.006516
      7.98465      8.89950     11.57640         0.011724     -0.002787      0.009463
 -----------------------------------------------------------------------------------
    total drift:                                0.098568     -0.463008     -0.016936


--------------------------------------------------------------------------------------------------------



  FREE ENERGIE OF THE ION-ELECTRON SYSTEM (eV)
  ---------------------------------------------------
  free  energy   TOTEN  =     -1349.99633916 eV

  energy  without entropy=    -1349.99633916  energy(sigma->0) =    -1349.99633916
 


--------------------------------------------------------------------------------------------------------


    POTLOK:  cpu time    0.7517: real time    0.7514


--------------------------------------------------------------------------------------------------------


     LOOP+:  cpu time  362.1390: real time  362.0651
    4ORBIT:  cpu time    0.0000: real time    0.0000

 total amount of memory used by VASP MPI-rank0    91919. kBytes
=======================================================================

   base      :      30000. kBytes
   nonlr-proj:       8728. kBytes
   fftplans  :       4220. kBytes
   grid      :      12288. kBytes
   one-center:        311. kBytes
   wavefun   :      36372. kBytes
 
  
  
 General timing and accounting informations for this job:
 ========================================================
  
                  Total CPU time used (sec):      442.335
                            User time (sec):      427.652
                          System time (sec):       14.683
                         Elapsed time (sec):      443.866
  
                   Maximum memory used (kb):      928848.
                   Average memory used (kb):           0.
  
                          Minor page faults:        55264
                          Major page faults:           63
                 Voluntary context switches:         6384
