       N       E                     dE             d eps       ncg     rms          rms(c)
DAV:   1    -0.132817535647E+04   -0.13282E+04   -0.12881E+00  6304   0.970E-01    0.946E-01
DAV:   2    -0.132990567932E+04   -0.17303E+01   -0.11487E+00  6080   0.942E-01    0.403E-01
DAV:   3    -0.132991537179E+04   -0.96925E-02   -0.40381E-02  6720   0.224E-01    0.274E-01
DAV:   4    -0.132991541536E+04   -0.43563E-04   -0.20237E-03  5600   0.557E-02    0.222E-01
DAV:   5    -0.132991542530E+04   -0.99486E-05   -0.19462E-04  6848   0.177E-02    0.187E-01
DAV:   6    -0.132991543782E+04   -0.12514E-04   -0.21258E-05  7200   0.687E-03    0.163E-01
DAV:   7    -0.132991544784E+04   -0.10019E-04   -0.23357E-05  6848   0.824E-03    0.128E-01
DAV:   8    -0.132991545442E+04   -0.65796E-05   -0.16434E-05  6976   0.639E-03    0.105E-01
DAV:   9    -0.132991545972E+04   -0.53005E-05   -0.53803E-06  7072   0.355E-03    0.886E-02
DAV:  10    -0.132991546692E+04   -0.72061E-05   -0.20860E-05  6560   0.785E-03    0.516E-02
DAV:  11    -0.132991547117E+04   -0.42452E-05   -0.31747E-05  6688   0.914E-03    0.139E-02
DAV:  12    -0.132991547218E+04   -0.10149E-05   -0.41716E-06  7168   0.261E-03    0.797E-03
DAV:  13    -0.132991547236E+04   -0.17903E-06   -0.51069E-07  6272   0.114E-03    0.371E-03
DAV:  14    -0.132991547237E+04   -0.82509E-08   -0.22770E-07  6608   0.623E-04    0.215E-03
DAV:  15    -0.132991547234E+04    0.32931E-07   -0.25379E-08  3392   0.342E-04    0.558E-04
DAV:  16    -0.132991547235E+04   -0.13912E-07   -0.39063E-08  4224   0.239E-04    0.575E-04
DAV:  17    -0.132991547234E+04    0.93423E-08   -0.35969E-09  3136   0.110E-04
   1 F= -.13489468E+04 E0= -.13489468E+04  d E =-.134895E+04  mag=    -0.0000
       N       E                     dE             d eps       ncg     rms          rms(c)
DAV:   1    -0.132991461576E+04    0.85660E-03   -0.58199E-01  5120   0.886E-01    0.129E-01
DAV:   2    -0.132991492090E+04   -0.30514E-03   -0.50430E-03  5664   0.832E-02    0.931E-02
DAV:   3    -0.132991484970E+04    0.71197E-04   -0.58446E-04  6240   0.430E-02    0.368E-02
DAV:   4    -0.132991485620E+04   -0.64944E-05   -0.12602E-04  6112   0.164E-02    0.169E-02
DAV:   5    -0.132991485231E+04    0.38889E-05   -0.39931E-05  5920   0.100E-02    0.725E-03
DAV:   6    -0.132991485169E+04    0.62125E-06   -0.51519E-06  6112   0.336E-03    0.402E-03
DAV:   7    -0.132991485169E+04   -0.32596E-08   -0.32249E-06  6336   0.259E-03    0.201E-03
DAV:   8    -0.132991485172E+04   -0.27372E-07   -0.46373E-07  5808   0.116E-03    0.123E-03
DAV:   9    -0.132991485188E+04   -0.16416E-06   -0.22563E-07  5312   0.733E-04    0.576E-04
DAV:  10    -0.132991485204E+04   -0.16288E-06   -0.80438E-08  5408   0.533E-04    0.561E-04
DAV:  11    -0.132991485222E+04   -0.17099E-06   -0.52476E-08  5120   0.386E-04    0.254E-04
DAV:  12    -0.132991485240E+04   -0.18629E-06   -0.18812E-08  4032   0.251E-04    0.152E-04
DAV:  13    -0.132991485257E+04   -0.17090E-06   -0.11308E-08  3616   0.168E-04    0.167E-04
DAV:  14    -0.132991485271E+04   -0.13839E-06   -0.74438E-09  3424   0.119E-04    0.930E-05
DAV:  15    -0.132991485283E+04   -0.12155E-06   -0.73856E-09  3392   0.986E-05    0.644E-05
DAV:  16    -0.132991485288E+04   -0.51994E-07   -0.24386E-09  3200   0.566E-05    0.572E-05
DAV:  17    -0.132991485294E+04   -0.58848E-07   -0.28427E-09  3264   0.621E-05    0.243E-05
DAV:  18    -0.132991485296E+04   -0.19892E-07   -0.65961E-10  3136   0.380E-05    0.248E-05
DAV:  19    -0.132991485298E+04   -0.15454E-07   -0.93746E-11  3104   0.257E-05    0.149E-05
DAV:  20    -0.132991485299E+04   -0.15003E-07    0.16850E-10  3104   0.227E-05    0.936E-06
DAV:  21    -0.132991485300E+04   -0.70577E-08    0.38105E-10  3072   0.174E-05
   2 F= -.13489463E+04 E0= -.13489463E+04  d E =0.494589E-03  mag=    -0.0000
       N       E                     dE             d eps       ncg     rms          rms(c)
DAV:   1    -0.132991458071E+04    0.27229E-03   -0.11623E+00  5120   0.124E+00    0.141E-01
DAV:   2    -0.132991533418E+04   -0.75347E-03   -0.10254E-02  5600   0.111E-01    0.931E-02
DAV:   3    -0.132991523371E+04    0.10047E-03   -0.85067E-04  6464   0.404E-02    0.472E-02
DAV:   4    -0.132991522406E+04    0.96504E-05   -0.22166E-04  5728   0.220E-02    0.176E-02
DAV:   5    -0.132991522058E+04    0.34846E-05   -0.59377E-05  5632   0.119E-02    0.962E-03
DAV:   6    -0.132991522093E+04   -0.35105E-06   -0.11211E-05  5952   0.380E-03    0.575E-03
DAV:   7    -0.132991522060E+04    0.33028E-06   -0.34008E-06  6240   0.280E-03    0.292E-03
DAV:   8    -0.132991522077E+04   -0.17359E-06   -0.82126E-07  6272   0.133E-03    0.184E-03
DAV:   9    -0.132991522088E+04   -0.11396E-06   -0.29462E-07  6112   0.791E-04    0.731E-04
DAV:  10    -0.132991522109E+04   -0.21145E-06   -0.75016E-08  4768   0.373E-04    0.357E-04
DAV:  11    -0.132991522131E+04   -0.21422E-06   -0.16035E-08  3776   0.228E-04    0.273E-04
DAV:  12    -0.132991522154E+04   -0.22839E-06   -0.28067E-08  4288   0.254E-04    0.131E-04
DAV:  13    -0.132991522167E+04   -0.13554E-06   -0.56538E-09  3328   0.114E-04    0.975E-05
DAV:  14    -0.132991522181E+04   -0.13247E-06   -0.57547E-09  3392   0.868E-05    0.596E-05
DAV:  15    -0.132991522187E+04   -0.66502E-07   -0.21263E-09  3200   0.607E-05    0.394E-05
DAV:  16    -0.132991522195E+04   -0.75524E-07   -0.40142E-09  3200   0.614E-05    0.461E-05
DAV:  17    -0.132991522196E+04   -0.12355E-07   -0.43049E-10  3136   0.414E-05    0.325E-05
DAV:  18    -0.132991522198E+04   -0.18685E-07   -0.84713E-10  3136   0.487E-05    0.400E-05
DAV:  19    -0.132991522199E+04   -0.69122E-08    0.21135E-10  3136   0.317E-05
   3 F= -.13489467E+04 E0= -.13489467E+04  d E =-.373599E-03  mag=     0.0000
       N       E                     dE             d eps       ncg     rms          rms(c)
DAV:   1    -0.132991471046E+04    0.51152E-03   -0.11535E+00  5120   0.124E+00    0.131E-01
DAV:   2    -0.132991519495E+04   -0.48449E-03   -0.91104E-03  5696   0.114E-01    0.931E-02
DAV:   3    -0.132991506105E+04    0.13389E-03   -0.10467E-03  6368   0.485E-02    0.425E-02
DAV:   4    -0.132991506023E+04    0.82601E-06   -0.17378E-04  5984   0.183E-02    0.191E-02
DAV:   5    -0.132991505682E+04    0.34073E-05   -0.36169E-05  5696   0.101E-02    0.816E-03
DAV:   6    -0.132991505654E+04    0.27670E-06   -0.49053E-06  5952   0.353E-03    0.390E-03
DAV:   7    -0.132991505705E+04   -0.50590E-06   -0.33389E-06  6304   0.278E-03    0.251E-03
DAV:   8    -0.132991505733E+04   -0.27925E-06   -0.74099E-07  6336   0.131E-03    0.130E-03
DAV:   9    -0.132991505807E+04   -0.74136E-06   -0.37668E-07  5920   0.964E-04    0.862E-04
DAV:  10    -0.132991505880E+04   -0.72489E-06   -0.11038E-07  5696   0.688E-04    0.643E-04
DAV:  11    -0.132991505946E+04   -0.66396E-06   -0.94146E-08  5376   0.527E-04    0.267E-04
DAV:  12    -0.132991506029E+04   -0.83039E-06   -0.42831E-08  4512   0.364E-04    0.230E-04
DAV:  13    -0.132991506073E+04   -0.44431E-06   -0.26117E-08  4272   0.214E-04    0.176E-04
DAV:  14    -0.132991506104E+04   -0.30251E-06   -0.79564E-09  3488   0.108E-04    0.106E-04
DAV:  15    -0.132991506133E+04   -0.29031E-06   -0.12398E-08  3888   0.905E-05    0.694E-05
DAV:  16    -0.132991506143E+04   -0.10416E-06   -0.21551E-09  3296   0.622E-05    0.433E-05
DAV:  17    -0.132991506157E+04   -0.13516E-06   -0.45772E-09  3392   0.664E-05    0.459E-05
DAV:  18    -0.132991506161E+04   -0.46537E-07   -0.91409E-10  3168   0.508E-05    0.369E-05
DAV:  19    -0.132991506165E+04   -0.34925E-07   -0.95331E-10  3168   0.480E-05    0.366E-05
DAV:  20    -0.132991506167E+04   -0.18772E-07   -0.22721E-10  3168   0.441E-05    0.250E-05
DAV:  21    -0.132991506168E+04   -0.83237E-08    0.15846E-10  3136   0.321E-05
   4 F= -.13489467E+04 E0= -.13489467E+04  d E =0.342666E-04  mag=     0.0000
       N       E                     dE             d eps       ncg     rms          rms(c)
DAV:   1    -0.132991439682E+04    0.66484E-03   -0.11561E+00  5120   0.127E+00    0.175E-01
DAV:   2    -0.132991545670E+04   -0.10599E-02   -0.13806E-02  5568   0.133E-01    0.118E-01
DAV:   3    -0.132991529065E+04    0.16605E-03   -0.10857E-03  6592   0.488E-02    0.671E-02
DAV:   4    -0.132991525772E+04    0.32927E-04   -0.43314E-04  5984   0.356E-02    0.223E-02
DAV:   5    -0.132991525151E+04    0.62098E-05   -0.11272E-04  5760   0.163E-02    0.144E-02
DAV:   6    -0.132991524900E+04    0.25110E-05   -0.30892E-05  5984   0.711E-03    0.854E-03
DAV:   7    -0.132991524739E+04    0.16080E-05   -0.70052E-06  6752   0.441E-03    0.388E-03
DAV:   8    -0.132991524686E+04    0.52845E-06   -0.29133E-06  6080   0.297E-03    0.288E-03
DAV:   9    -0.132991524668E+04    0.18472E-06   -0.10558E-06  6464   0.202E-03    0.144E-03
DAV:  10    -0.132991524768E+04   -0.99774E-06   -0.87664E-07  5888   0.163E-03    0.145E-03
DAV:  11    -0.132991524877E+04   -0.10977E-05   -0.30858E-07  6112   0.120E-03    0.902E-04
DAV:  12    -0.132991525022E+04   -0.14499E-05   -0.29132E-07  5360   0.868E-04    0.382E-04
DAV:  13    -0.132991525133E+04   -0.11116E-05   -0.74733E-08  5216   0.383E-04    0.293E-04
DAV:  14    -0.132991525213E+04   -0.79845E-06   -0.23657E-08  3872   0.170E-04    0.206E-04
DAV:  15    -0.132991525319E+04   -0.10539E-05   -0.50227E-08  4352   0.169E-04    0.108E-04
DAV:  16    -0.132991525351E+04   -0.32561E-06   -0.73584E-09  3360   0.861E-05    0.772E-05
DAV:  17    -0.132991525385E+04   -0.33561E-06   -0.10501E-08  3616   0.786E-05    0.648E-05
DAV:  18    -0.132991525398E+04   -0.12820E-06   -0.21764E-09  3264   0.519E-05    0.523E-05
DAV:  19    -0.132991525407E+04   -0.98094E-07   -0.29904E-09  3232   0.612E-05    0.277E-05
DAV:  20    -0.132991525411E+04   -0.30370E-07   -0.46470E-10  3136   0.395E-05    0.259E-05
DAV:  21    -0.132991525412E+04   -0.12689E-07    0.11594E-10  3072   0.255E-05    0.171E-05
DAV:  22    -0.132991525413E+04   -0.84256E-08    0.30421E-10  3072   0.245E-05
   5 F= -.13489464E+04 E0= -.13489464E+04  d E =0.265927E-03  mag=     0.0000
       N       E                     dE             d eps       ncg     rms          rms(c)
DAV:   1    -0.132991501647E+04    0.23765E-03   -0.11624E+00  5120   0.115E+00    0.104E-01
DAV:   2    -0.132991557183E+04   -0.55536E-03   -0.85652E-03  5600   0.973E-02    0.627E-02
DAV:   3    -0.132991546940E+04    0.10243E-03   -0.67342E-04  6432   0.317E-02    0.264E-02
DAV:   4    -0.132991546068E+04    0.87112E-05   -0.12434E-04  5920   0.134E-02    0.139E-02
DAV:   5    -0.132991545894E+04    0.17398E-05   -0.12716E-05  5728   0.496E-03    0.701E-03
DAV:   6    -0.132991545772E+04    0.12203E-05   -0.26128E-06  5696   0.248E-03    0.244E-03
DAV:   7    -0.132991545784E+04   -0.11697E-06   -0.13163E-06  6976   0.170E-03    0.146E-03
DAV:   8    -0.132991545808E+04   -0.24040E-06   -0.31650E-07  5760   0.828E-04    0.915E-04
DAV:   9    -0.132991545872E+04   -0.63481E-06   -0.12173E-07  5728   0.604E-04    0.520E-04
DAV:  10    -0.132991545949E+04   -0.77009E-06   -0.11503E-07  5392   0.601E-04    0.320E-04
DAV:  11    -0.132991546015E+04   -0.66165E-06   -0.81030E-08  4704   0.373E-04    0.238E-04
DAV:  12    -0.132991546073E+04   -0.58142E-06   -0.26271E-08  4128   0.216E-04    0.161E-04
DAV:  13    -0.132991546118E+04   -0.45348E-06   -0.20045E-08  3840   0.164E-04    0.995E-05
DAV:  14    -0.132991546149E+04   -0.31119E-06   -0.13482E-08  3712   0.126E-04    0.659E-05
DAV:  15    -0.132991546173E+04   -0.23426E-06   -0.82398E-09  3488   0.101E-04    0.579E-05
DAV:  16    -0.132991546185E+04   -0.11963E-06   -0.40652E-09  3264   0.915E-05    0.343E-05
DAV:  17    -0.132991546195E+04   -0.10042E-06   -0.50202E-09  3328   0.109E-04    0.348E-05
DAV:  18    -0.132991546199E+04   -0.39712E-07   -0.20737E-09  3200   0.763E-05    0.398E-05
DAV:  19    -0.132991546200E+04   -0.12835E-07   -0.15201E-11  3072   0.324E-05    0.208E-05
DAV:  20    -0.132991546202E+04   -0.20416E-07   -0.14078E-10  3136   0.367E-05    0.257E-05
DAV:  21    -0.132991546203E+04   -0.59517E-08    0.53688E-10  3072   0.221E-05
   6 F= -.13489468E+04 E0= -.13489468E+04  d E =-.376802E-03  mag=     0.0000
       N       E                     dE             d eps       ncg     rms          rms(c)
DAV:   1    -0.132991382332E+04    0.16387E-02   -0.11662E+00  5120   0.116E+00    0.153E-01
DAV:   2    -0.132991451065E+04   -0.68733E-03   -0.10788E-02  5632   0.111E-01    0.103E-01
DAV:   3    -0.132991436703E+04    0.14362E-03   -0.11539E-03  6560   0.534E-02    0.407E-02
DAV:   4    -0.132991437135E+04   -0.43204E-05   -0.22079E-04  6048   0.193E-02    0.220E-02
DAV:   5    -0.132991436421E+04    0.71351E-05   -0.37850E-05  6144   0.937E-03    0.974E-03
DAV:   6    -0.132991436185E+04    0.23647E-05   -0.64276E-06  6528   0.417E-03    0.438E-03
DAV:   7    -0.132991436162E+04    0.22874E-06   -0.24156E-06  6480   0.250E-03    0.200E-03
DAV:   8    -0.132991436205E+04   -0.43104E-06   -0.66602E-07  6784   0.166E-03    0.135E-03
DAV:   9    -0.132991436351E+04   -0.14564E-05   -0.38573E-07  6352   0.167E-03    0.796E-04
DAV:  10    -0.132991436520E+04   -0.16883E-05   -0.39040E-07  6048   0.126E-03    0.723E-04
DAV:  11    -0.132991436711E+04   -0.19160E-05   -0.31164E-07  5536   0.844E-04    0.456E-04
DAV:  12    -0.132991436866E+04   -0.15464E-05   -0.87637E-08  5248   0.481E-04    0.328E-04
DAV:  13    -0.132991436968E+04   -0.10192E-05   -0.48894E-08  4480   0.243E-04    0.240E-04
DAV:  14    -0.132991437051E+04   -0.83449E-06   -0.24971E-08  3936   0.160E-04    0.112E-04
DAV:  15    -0.132991437120E+04   -0.68838E-06   -0.24054E-08  4000   0.127E-04    0.132E-04
DAV:  16    -0.132991437149E+04   -0.29290E-06   -0.52424E-09  3232   0.856E-05    0.711E-05
DAV:  17    -0.132991437176E+04   -0.26971E-06   -0.94891E-09  3552   0.848E-05    0.541E-05
DAV:  18    -0.132991437186E+04   -0.98691E-07   -0.16242E-09  3136   0.567E-05    0.370E-05
DAV:  19    -0.132991437194E+04   -0.73982E-07   -0.13754E-09  3136   0.504E-05    0.207E-05
DAV:  20    -0.132991437196E+04   -0.23443E-07   -0.16757E-10  3136   0.396E-05    0.215E-05
DAV:  21    -0.132991437198E+04   -0.18947E-07    0.33317E-10  3072   0.235E-05    0.154E-05
DAV:  22    -0.132991437199E+04   -0.74797E-08    0.59445E-10  3072   0.191E-05
   7 F= -.13489462E+04 E0= -.13489462E+04  d E =0.595584E-03  mag=     0.0000
       N       E                     dE             d eps       ncg     rms          rms(c)
DAV:   1    -0.132991393602E+04    0.43596E-03   -0.11595E+00  5120   0.117E+00    0.182E-01
DAV:   2    -0.132991504021E+04   -0.11042E-02   -0.14123E-02  5696   0.122E-01    0.135E-01
DAV:   3    -0.132991484953E+04    0.19068E-03   -0.12839E-03  6304   0.562E-02    0.701E-02
DAV:   4    -0.132991483866E+04    0.10868E-04   -0.39953E-04  6048   0.324E-02    0.231E-02
DAV:   5    -0.132991482764E+04    0.11023E-04   -0.11826E-04  5600   0.179E-02    0.123E-02
DAV:   6    -0.132991482459E+04    0.30529E-05   -0.24572E-05  5920   0.618E-03    0.648E-03
DAV:   7    -0.132991482420E+04    0.39124E-06   -0.54283E-06  6912   0.359E-03    0.343E-03
DAV:   8    -0.132991482404E+04    0.15186E-06   -0.19524E-06  6336   0.286E-03    0.260E-03
DAV:   9    -0.132991482428E+04   -0.23338E-06   -0.10537E-06  6944   0.198E-03    0.130E-03
DAV:  10    -0.132991482580E+04   -0.15192E-05   -0.54082E-07  6080   0.154E-03    0.115E-03
DAV:  11    -0.132991482814E+04   -0.23440E-05   -0.50174E-07  6368   0.158E-03    0.708E-04
DAV:  12    -0.132991483037E+04   -0.22288E-05   -0.40192E-07  5536   0.851E-04    0.445E-04
DAV:  13    -0.132991483162E+04   -0.12547E-05   -0.63397E-08  5152   0.301E-04    0.285E-04
DAV:  14    -0.132991483258E+04   -0.95626E-06   -0.21418E-08  3712   0.156E-04    0.172E-04
DAV:  15    -0.132991483385E+04   -0.12713E-05   -0.47798E-08  4192   0.151E-04    0.109E-04
DAV:  16    -0.132991483445E+04   -0.59849E-06   -0.14762E-08  3584   0.101E-04    0.664E-05
DAV:  17    -0.132991483485E+04   -0.39773E-06   -0.10854E-08  3520   0.862E-05    0.571E-05
DAV:  18    -0.132991483499E+04   -0.14360E-06   -0.27511E-09  3264   0.634E-05    0.433E-05
DAV:  19    -0.132991483512E+04   -0.12993E-06   -0.43783E-09  3264   0.668E-05    0.518E-05
DAV:  20    -0.132991483515E+04   -0.26746E-07   -0.97351E-10  3136   0.586E-05    0.384E-05
DAV:  21    -0.132991483516E+04   -0.13068E-07   -0.19713E-10  3072   0.418E-05    0.150E-05
DAV:  22    -0.132991483517E+04   -0.79162E-08    0.31567E-10  3072   0.276E-05
   8 F= -.13489461E+04 E0= -.13489461E+04  d E =0.106059E-03  mag=     0.0000
       N       E                     dE             d eps       ncg     rms          rms(c)
DAV:   1    -0.132991439240E+04    0.44276E-03   -0.11673E+00  5120   0.111E+00    0.315E-01
DAV:   2    -0.132991502052E+04   -0.62811E-03   -0.10986E-02  5760   0.119E-01    0.259E-01
DAV:   3    -0.132991488670E+04    0.13382E-03   -0.29092E-03  5952   0.104E-01    0.539E-02
DAV:   4    -0.132991484164E+04    0.45059E-04   -0.78770E-04  5728   0.425E-02    0.324E-02
DAV:   5    -0.132991483164E+04    0.99995E-05   -0.14463E-04  6208   0.174E-02    0.166E-02
DAV:   6    -0.132991482975E+04    0.18949E-05   -0.30291E-05  6624   0.806E-03    0.731E-03
DAV:   7    -0.132991482954E+04    0.20568E-06   -0.36654E-06  6464   0.264E-03    0.372E-03
DAV:   8    -0.132991483107E+04   -0.15323E-05   -0.13408E-06  6592   0.177E-03    0.186E-03
DAV:   9    -0.132991483258E+04   -0.15035E-05   -0.54056E-07  6496   0.135E-03    0.994E-04
DAV:  10    -0.132991483481E+04   -0.22367E-05   -0.24075E-07  5568   0.774E-04    0.679E-04
DAV:  11    -0.132991483708E+04   -0.22711E-05   -0.22399E-07  4976   0.765E-04    0.429E-04
DAV:  12    -0.132991483893E+04   -0.18441E-05   -0.14242E-07  4944   0.456E-04    0.428E-04
DAV:  13    -0.132991483984E+04   -0.91516E-06   -0.39031E-08  4752   0.218E-04    0.226E-04
DAV:  14    -0.132991484064E+04   -0.80018E-06   -0.28626E-08  4320   0.164E-04    0.192E-04
DAV:  15    -0.132991484112E+04   -0.47217E-06   -0.10447E-08  3680   0.111E-04    0.102E-04
DAV:  16    -0.132991484144E+04   -0.32729E-06   -0.93556E-09  3680   0.898E-05    0.690E-05
DAV:  17    -0.132991484164E+04   -0.19843E-06   -0.38875E-09  3328   0.765E-05    0.353E-05
DAV:  18    -0.132991484178E+04   -0.13594E-06   -0.38616E-09  3296   0.703E-05    0.290E-05
DAV:  19    -0.132991484182E+04   -0.45606E-07   -0.10754E-09  3136   0.557E-05    0.221E-05
DAV:  20    -0.132991484187E+04   -0.48705E-07   -0.99193E-10  3136   0.435E-05    0.165E-05
DAV:  21    -0.132991484188E+04   -0.10739E-07    0.19732E-10  3072   0.291E-05    0.116E-05
DAV:  22    -0.132991484189E+04   -0.87603E-08    0.65867E-10  3072   0.191E-05
   9 F= -.13489464E+04 E0= -.13489464E+04  d E =-.300412E-03  mag=     0.0000
       N       E                     dE             d eps       ncg     rms          rms(c)
DAV:   1    -0.132991434350E+04    0.49838E-03   -0.11449E+00  5120   0.111E+00    0.231E-01
DAV:   2    -0.132991530057E+04   -0.95707E-03   -0.12169E-02  5760   0.988E-02    0.168E-01
DAV:   3    -0.132991512917E+04    0.17139E-03   -0.13391E-03  6432   0.494E-02    0.810E-02
DAV:   4    -0.132991510572E+04    0.23450E-04   -0.31960E-04  5792   0.204E-02    0.301E-02
DAV:   5    -0.132991510153E+04    0.41921E-05   -0.11871E-04  5664   0.171E-02    0.124E-02
DAV:   6    -0.132991510405E+04   -0.25167E-05   -0.20682E-05  5696   0.592E-03    0.533E-03
DAV:   7    -0.132991510985E+04   -0.58028E-05   -0.51461E-06  6880   0.321E-03    0.282E-03
DAV:   8    -0.132991511390E+04   -0.40486E-05   -0.80149E-07  5856   0.117E-03    0.161E-03
DAV:   9    -0.132991512133E+04   -0.74281E-05   -0.92723E-07  5216   0.128E-03    0.124E-03
DAV:  10    -0.132991512769E+04   -0.63663E-05   -0.55982E-07  5760   0.727E-04    0.929E-04
DAV:  11    -0.132991513342E+04   -0.57268E-05   -0.62728E-07  5152   0.771E-04    0.624E-04
DAV:  12    -0.132991513699E+04   -0.35684E-05   -0.31118E-07  5312   0.515E-04    0.741E-04
DAV:  13    -0.132991513853E+04   -0.15355E-05   -0.92500E-08  5088   0.336E-04    0.303E-04
DAV:  14    -0.132991514014E+04   -0.16125E-05   -0.64948E-08  4768   0.202E-04    0.130E-04
DAV:  15    -0.132991514109E+04   -0.95587E-06   -0.31236E-08  4512   0.123E-04    0.109E-04
DAV:  16    -0.132991514176E+04   -0.67052E-06   -0.21178E-08  4032   0.948E-05    0.631E-05
DAV:  17    -0.132991514207E+04   -0.30248E-06   -0.60930E-09  3424   0.656E-05    0.449E-05
DAV:  18    -0.132991514221E+04   -0.14545E-06   -0.29328E-09  3264   0.562E-05    0.301E-05
DAV:  19    -0.132991514227E+04   -0.61074E-07   -0.93572E-10  3136   0.491E-05    0.201E-05
DAV:  20    -0.132991514232E+04   -0.50932E-07   -0.61963E-10  3200   0.437E-05    0.259E-05
DAV:  21    -0.132991514235E+04   -0.28071E-07    0.23518E-10  3136   0.304E-05    0.241E-05
DAV:  22    -0.132991514236E+04   -0.75815E-08    0.64599E-10  3072   0.209E-05
  10 F= -.13489466E+04 E0= -.13489466E+04  d E =-.233550E-03  mag=    -0.0000
       N       E                     dE             d eps       ncg     rms          rms(c)
DAV:   1    -0.132991397462E+04    0.11677E-02   -0.61538E-01  5120   0.817E-01    0.156E-01
DAV:   2    -0.132991436630E+04   -0.39169E-03   -0.76084E-03  5920   0.846E-02    0.102E-01
DAV:   3    -0.132991423013E+04    0.13617E-03   -0.10482E-03  6240   0.420E-02    0.545E-02
DAV:   4    -0.132991421902E+04    0.11115E-04   -0.18241E-04  5856   0.175E-02    0.233E-02
DAV:   5    -0.132991421212E+04    0.68994E-05   -0.57380E-05  5600   0.117E-02    0.865E-03
DAV:   6    -0.132991421135E+04    0.77470E-06   -0.77962E-06  5728   0.395E-03    0.382E-03
DAV:   7    -0.132991421224E+04   -0.89442E-06   -0.22780E-06  6896   0.217E-03    0.236E-03
DAV:   8    -0.132991421323E+04   -0.99340E-06   -0.48371E-07  6368   0.119E-03    0.130E-03
DAV:   9    -0.132991421551E+04   -0.22776E-05   -0.28660E-07  5344   0.127E-03    0.722E-04
DAV:  10    -0.132991421736E+04   -0.18529E-05   -0.27382E-07  5856   0.830E-04    0.602E-04
DAV:  11    -0.132991421959E+04   -0.22249E-05   -0.15096E-07  4992   0.601E-04    0.295E-04
DAV:  12    -0.132991422132E+04   -0.17333E-05   -0.10858E-07  4768   0.455E-04    0.248E-04
DAV:  13    -0.132991422234E+04   -0.10193E-05   -0.42631E-08  4576   0.221E-04    0.198E-04
DAV:  14    -0.132991422295E+04   -0.61298E-06   -0.12034E-08  3808   0.115E-04    0.116E-04
DAV:  15    -0.132991422361E+04   -0.65661E-06   -0.17105E-08  3904   0.111E-04    0.831E-05
DAV:  16    -0.132991422392E+04   -0.31189E-06   -0.52709E-09  3392   0.735E-05    0.560E-05
DAV:  17    -0.132991422412E+04   -0.19917E-06   -0.39414E-09  3360   0.629E-05    0.339E-05
DAV:  18    -0.132991422423E+04   -0.10476E-06   -0.20592E-09  3200   0.619E-05    0.223E-05
DAV:  19    -0.132991422427E+04   -0.43336E-07   -0.11530E-09  3136   0.563E-05    0.205E-05
DAV:  20    -0.132991422429E+04   -0.17753E-07   -0.15844E-10  3136   0.428E-05    0.144E-05
DAV:  21    -0.132991422430E+04   -0.96043E-08    0.35924E-10  3072   0.258E-05
  11 F= -.13489456E+04 E0= -.13489456E+04  d E =0.103003E-02  mag=     0.0000
       N       E                     dE             d eps       ncg     rms          rms(c)
DAV:   1    -0.132991538985E+04   -0.11656E-02   -0.75764E-02  4864   0.163E-01    0.984E-02
DAV:   2    -0.132991534332E+04    0.46525E-04   -0.72956E-04  5216   0.161E-02    0.581E-02
DAV:   3    -0.132991533511E+04    0.82167E-05   -0.40783E-04  5120   0.120E-02    0.194E-02
DAV:   4    -0.132991532708E+04    0.80242E-05   -0.41258E-05  5024   0.402E-03    0.129E-02
DAV:   5    -0.132991532544E+04    0.16415E-05   -0.19556E-05  4928   0.275E-03    0.276E-03
DAV:   6    -0.132991532565E+04   -0.20354E-06   -0.16261E-06  5248   0.889E-04    0.109E-03
DAV:   7    -0.132991532593E+04   -0.28314E-06   -0.31306E-07  4928   0.342E-04    0.927E-04
DAV:   8    -0.132991532632E+04   -0.39228E-06   -0.90686E-08  3968   0.233E-04    0.271E-04
DAV:   9    -0.132991532664E+04   -0.31879E-06   -0.35703E-08  4224   0.154E-04    0.271E-04
DAV:  10    -0.132991532694E+04   -0.30095E-06   -0.11104E-08  3520   0.102E-04    0.108E-04
DAV:  11    -0.132991532725E+04   -0.31055E-06   -0.14137E-08  3616   0.977E-05    0.103E-04
DAV:  12    -0.132991532745E+04   -0.19817E-06   -0.83172E-09  3520   0.997E-05    0.556E-05
DAV:  13    -0.132991532753E+04   -0.82771E-07   -0.33697E-09  3200   0.788E-05    0.471E-05
DAV:  14    -0.132991532760E+04   -0.66269E-07   -0.17165E-09  3168   0.521E-05    0.256E-05
DAV:  15    -0.132991532767E+04   -0.68103E-07   -0.21982E-09  3232   0.507E-05    0.228E-05
DAV:  16    -0.132991532769E+04   -0.20751E-07   -0.37344E-10  3072   0.350E-05    0.189E-05
DAV:  17    -0.132991532770E+04   -0.14013E-07    0.11112E-10  2944   0.246E-05    0.131E-05
DAV:  18    -0.132991532771E+04   -0.95170E-08    0.33923E-10  3072   0.214E-05
  12 F= -.13489466E+04 E0= -.13489466E+04  d E =-.107506E-02  mag=    -0.0000
       N       E                     dE             d eps       ncg     rms          rms(c)
DAV:   1    -0.132991532294E+04    0.47631E-05   -0.72336E-02  4800   0.163E-01    0.780E-02
DAV:   2    -0.132991534580E+04   -0.22862E-04   -0.49535E-04  5248   0.128E-02    0.474E-02
DAV:   3    -0.132991534722E+04   -0.14180E-05   -0.85315E-05  5376   0.580E-03    0.632E-03
DAV:   4    -0.132991534687E+04    0.34996E-06   -0.84099E-06  4992   0.183E-03    0.384E-03
DAV:   5    -0.132991534691E+04   -0.44325E-07   -0.38221E-06  4992   0.133E-03    0.126E-03
DAV:   6    -0.132991534714E+04   -0.22915E-06   -0.41855E-07  4864   0.549E-04    0.751E-04
DAV:   7    -0.132991534750E+04   -0.35674E-06   -0.96766E-08  4128   0.264E-04    0.297E-04
DAV:   8    -0.132991534781E+04   -0.30866E-06   -0.23385E-08  3904   0.127E-04    0.199E-04
DAV:   9    -0.132991534817E+04   -0.36610E-06   -0.13106E-08  3648   0.112E-04    0.120E-04
DAV:  10    -0.132991534856E+04   -0.38288E-06   -0.15140E-08  3648   0.103E-04    0.699E-05
DAV:  11    -0.132991534874E+04   -0.18303E-06   -0.49646E-09  3392   0.756E-05    0.506E-05
DAV:  12    -0.132991534890E+04   -0.15961E-06   -0.46634E-09  3456   0.718E-05    0.344E-05
DAV:  13    -0.132991534901E+04   -0.10803E-06   -0.34991E-09  3360   0.710E-05    0.219E-05
DAV:  14    -0.132991534905E+04   -0.44834E-07   -0.12493E-09  3136   0.547E-05    0.152E-05
DAV:  15    -0.132991534908E+04   -0.29991E-07   -0.62508E-10  3200   0.362E-05    0.105E-05
DAV:  16    -0.132991534909E+04   -0.10288E-07    0.28397E-10  3072   0.244E-05    0.781E-06
DAV:  17    -0.132991534910E+04   -0.59081E-08    0.49679E-10  3040   0.162E-05
  13 F= -.13489465E+04 E0= -.13489465E+04  d E =0.173719E-03  mag=    -0.0000
       N       E                     dE             d eps       ncg     rms          rms(c)
DAV:   1    -0.132991525647E+04    0.92622E-04   -0.73090E-02  4864   0.178E-01    0.832E-02
DAV:   2    -0.132991527809E+04   -0.21623E-04   -0.70246E-04  5440   0.161E-02    0.512E-02
DAV:   3    -0.132991527856E+04   -0.46338E-06   -0.18773E-04  5728   0.913E-03    0.124E-02
DAV:   4    -0.132991527549E+04    0.30655E-05   -0.19117E-05  5472   0.296E-03    0.770E-03
DAV:   5    -0.132991527502E+04    0.46648E-06   -0.11695E-05  5152   0.231E-03    0.172E-03
DAV:   6    -0.132991527535E+04   -0.32602E-06   -0.87384E-07  5248   0.837E-04    0.957E-04
DAV:   7    -0.132991527571E+04   -0.35677E-06   -0.13756E-07  4480   0.326E-04    0.439E-04
DAV:   8    -0.132991527613E+04   -0.41895E-06   -0.43994E-08  4032   0.216E-04    0.240E-04
DAV:   9    -0.132991527648E+04   -0.35208E-06   -0.11906E-08  3520   0.111E-04    0.133E-04
DAV:  10    -0.132991527688E+04   -0.40581E-06   -0.17944E-08  3616   0.119E-04    0.841E-05
DAV:  11    -0.132991527711E+04   -0.22892E-06   -0.79392E-09  3616   0.844E-05    0.704E-05
DAV:  12    -0.132991527728E+04   -0.16927E-06   -0.49809E-09  3328   0.756E-05    0.359E-05
DAV:  13    -0.132991527737E+04   -0.88039E-07   -0.24424E-09  3328   0.624E-05    0.343E-05
DAV:  14    -0.132991527744E+04   -0.73080E-07   -0.15880E-09  3200   0.584E-05    0.222E-05
DAV:  15    -0.132991527750E+04   -0.56680E-07   -0.12113E-09  3232   0.504E-05    0.158E-05
DAV:  16    -0.132991527752E+04   -0.20897E-07    0.72697E-11  3104   0.297E-05    0.102E-05
DAV:  17    -0.132991527754E+04   -0.14712E-07    0.30054E-10  3072   0.243E-05    0.100E-05
DAV:  18    -0.132991527754E+04   -0.69267E-08    0.49927E-10  3072   0.174E-05
  14 F= -.13489466E+04 E0= -.13489466E+04  d E =-.109802E-03  mag=    -0.0000
       N       E                     dE             d eps       ncg     rms          rms(c)
DAV:   1    -0.132991491872E+04    0.35882E-03   -0.75508E-02  4928   0.158E-01    0.100E-01
DAV:   2    -0.132991486522E+04    0.53501E-04   -0.74702E-04  5440   0.171E-02    0.586E-02
DAV:   3    -0.132991485345E+04    0.11763E-04   -0.37116E-04  5568   0.119E-02    0.184E-02
DAV:   4    -0.132991484614E+04    0.73154E-05   -0.35810E-05  5504   0.400E-03    0.116E-02
DAV:   5    -0.132991484542E+04    0.71849E-06   -0.18341E-05  5312   0.285E-03    0.221E-03
DAV:   6    -0.132991484588E+04   -0.46253E-06   -0.12558E-06  5408   0.984E-04    0.119E-03
DAV:   7    -0.132991484649E+04   -0.61028E-06   -0.23368E-07  5216   0.382E-04    0.799E-04
DAV:   8    -0.132991484727E+04   -0.77958E-06   -0.56207E-08  3936   0.241E-04    0.356E-04
DAV:   9    -0.132991484805E+04   -0.77569E-06   -0.43204E-08  3872   0.175E-04    0.228E-04
DAV:  10    -0.132991484886E+04   -0.81531E-06   -0.38800E-08  4064   0.181E-04    0.177E-04
DAV:  11    -0.132991484942E+04   -0.55232E-06   -0.22495E-08  3744   0.137E-04    0.105E-04
DAV:  12    -0.132991484991E+04   -0.48899E-06   -0.24450E-08  3872   0.141E-04    0.971E-05
DAV:  13    -0.132991485006E+04   -0.15368E-06   -0.47262E-09  3424   0.882E-05    0.894E-05
DAV:  14    -0.132991485026E+04   -0.19869E-06   -0.64222E-09  3552   0.885E-05    0.481E-05
DAV:  15    -0.132991485037E+04   -0.11195E-06   -0.30903E-09  3328   0.727E-05    0.552E-05
DAV:  16    -0.132991485041E+04   -0.42724E-07   -0.65924E-10  3168   0.479E-05    0.356E-05
DAV:  17    -0.132991485045E+04   -0.42201E-07   -0.47290E-10  3104   0.447E-05    0.257E-05
DAV:  18    -0.132991485048E+04   -0.26572E-07    0.21246E-10  3104   0.324E-05    0.276E-05
DAV:  19    -0.132991485049E+04   -0.97061E-08    0.68078E-10  3072   0.211E-05
  15 F= -.13489462E+04 E0= -.13489462E+04  d E =0.364679E-03  mag=    -0.0000
       N       E                     dE             d eps       ncg     rms          rms(c)
DAV:   1    -0.132991471007E+04    0.14041E-03   -0.72663E-02  4864   0.156E-01    0.849E-02
DAV:   2    -0.132991470464E+04    0.54363E-05   -0.59426E-04  5344   0.142E-02    0.506E-02
DAV:   3    -0.132991470365E+04    0.98629E-06   -0.20606E-04  5504   0.883E-03    0.133E-02
DAV:   4    -0.132991469997E+04    0.36809E-05   -0.20488E-05  5248   0.300E-03    0.846E-03
DAV:   5    -0.132991469943E+04    0.53790E-06   -0.12061E-05  5024   0.220E-03    0.155E-03
DAV:   6    -0.132991469969E+04   -0.26077E-06   -0.76057E-07  5184   0.698E-04    0.882E-04
DAV:   7    -0.132991470008E+04   -0.39072E-06   -0.12163E-07  4240   0.254E-04    0.488E-04
DAV:   8    -0.132991470056E+04   -0.48103E-06   -0.35012E-08  3648   0.142E-04    0.263E-04
DAV:   9    -0.132991470102E+04   -0.45511E-06   -0.18968E-08  3648   0.106E-04    0.145E-04
DAV:  10    -0.132991470152E+04   -0.50517E-06   -0.20884E-08  3776   0.104E-04    0.129E-04
DAV:  11    -0.132991470189E+04   -0.36330E-06   -0.12981E-08  3584   0.920E-05    0.956E-05
DAV:  12    -0.132991470214E+04   -0.25748E-06   -0.10185E-08  3520   0.901E-05    0.476E-05
DAV:  13    -0.132991470225E+04   -0.11049E-06   -0.32357E-09  3328   0.658E-05    0.498E-05
DAV:  14    -0.132991470238E+04   -0.12948E-06   -0.38414E-09  3296   0.579E-05    0.261E-05
DAV:  15    -0.132991470244E+04   -0.58353E-07   -0.15741E-09  3264   0.490E-05    0.233E-05
DAV:  16    -0.132991470246E+04   -0.14479E-07   -0.64366E-11  3136   0.327E-05    0.121E-05
DAV:  17    -0.132991470248E+04   -0.18350E-07    0.17827E-10  3072   0.274E-05    0.181E-05
DAV:  18    -0.132991470249E+04   -0.10681E-07    0.52914E-10  3072   0.188E-05    0.145E-05
DAV:  19    -0.132991470249E+04   -0.94587E-09    0.63068E-10  3072   0.157E-05
  16 F= -.13489460E+04 E0= -.13489460E+04  d E =0.245137E-03  mag=    -0.0000
       N       E                     dE             d eps       ncg     rms          rms(c)
DAV:   1    -0.132991502554E+04   -0.32305E-03   -0.77415E-02  5120   0.188E-01    0.106E-01
DAV:   2    -0.132991498857E+04    0.36969E-04   -0.11573E-03  5376   0.222E-02    0.640E-02
DAV:   3    -0.132991496777E+04    0.20799E-04   -0.57736E-04  5344   0.149E-02    0.235E-02
DAV:   4    -0.132991495639E+04    0.11376E-04   -0.54678E-05  5344   0.497E-03    0.145E-02
DAV:   5    -0.132991495391E+04    0.24893E-05   -0.31666E-05  5248   0.381E-03    0.242E-03
DAV:   6    -0.132991495405E+04   -0.14962E-06   -0.16812E-06  5536   0.120E-03    0.129E-03
DAV:   7    -0.132991495415E+04   -0.93642E-07   -0.25179E-07  5088   0.386E-04    0.819E-04
DAV:   8    -0.132991495430E+04   -0.15637E-06   -0.47039E-08  3936   0.231E-04    0.370E-04
DAV:   9    -0.132991495449E+04   -0.18120E-06   -0.19858E-08  3712   0.145E-04    0.176E-04
DAV:  10    -0.132991495471E+04   -0.22072E-06   -0.13377E-08  3680   0.114E-04    0.143E-04
DAV:  11    -0.132991495491E+04   -0.20109E-06   -0.71083E-09  3392   0.811E-05    0.918E-05
DAV:  12    -0.132991495509E+04   -0.18037E-06   -0.99141E-09  3584   0.903E-05    0.587E-05
DAV:  13    -0.132991495519E+04   -0.10191E-06   -0.39879E-09  3328   0.718E-05    0.547E-05
DAV:  14    -0.132991495527E+04   -0.77416E-07   -0.34980E-09  3328   0.668E-05    0.309E-05
DAV:  15    -0.132991495531E+04   -0.42768E-07   -0.15573E-09  3264   0.535E-05    0.259E-05
DAV:  16    -0.132991495533E+04   -0.15643E-07   -0.10833E-10  3136   0.368E-05    0.170E-05
DAV:  17    -0.132991495534E+04   -0.12413E-07    0.22348E-10  3072   0.284E-05    0.158E-05
DAV:  18    -0.132991495535E+04   -0.72905E-08    0.54461E-10  3072   0.202E-05
  17 F= -.13489463E+04 E0= -.13489463E+04  d E =-.298937E-03  mag=    -0.0000
       N       E                     dE             d eps       ncg     rms          rms(c)
DAV:   1    -0.132991493019E+04    0.25151E-04   -0.77636E-02  5056   0.191E-01    0.109E-01
DAV:   2    -0.132991484823E+04    0.81958E-04   -0.91143E-04  5312   0.215E-02    0.628E-02
DAV:   3    -0.132991482583E+04    0.22396E-04   -0.52057E-04  5728   0.143E-02    0.217E-02
DAV:   4    -0.132991481615E+04    0.96850E-05   -0.51024E-05  5536   0.477E-03    0.136E-02
DAV:   5    -0.132991481448E+04    0.16671E-05   -0.24492E-05  5360   0.329E-03    0.235E-03
DAV:   6    -0.132991481452E+04   -0.39305E-07   -0.15042E-06  5344   0.103E-03    0.125E-03
DAV:   7    -0.132991481464E+04   -0.11477E-06   -0.25515E-07  5152   0.349E-04    0.868E-04
DAV:   8    -0.132991481474E+04   -0.10770E-06   -0.46821E-08  4160   0.244E-04    0.332E-04
DAV:   9    -0.132991481486E+04   -0.11289E-06   -0.22113E-08  3936   0.170E-04    0.171E-04
DAV:  10    -0.132991481494E+04   -0.81724E-07   -0.50828E-09  3392   0.995E-05    0.986E-05
DAV:  11    -0.132991481503E+04   -0.92914E-07   -0.34425E-09  3392   0.934E-05    0.632E-05
DAV:  12    -0.132991481510E+04   -0.73764E-07   -0.35120E-09  3392   0.927E-05    0.402E-05
DAV:  13    -0.132991481516E+04   -0.52823E-07   -0.21022E-09  3264   0.679E-05    0.380E-05
DAV:  14    -0.132991481518E+04   -0.26383E-07   -0.83376E-10  3136   0.477E-05    0.206E-05
DAV:  15    -0.132991481521E+04   -0.22803E-07   -0.92930E-10  3200   0.463E-05    0.198E-05
DAV:  16    -0.132991481521E+04   -0.54133E-08    0.52799E-11  3088   0.328E-05
  18 F= -.13489461E+04 E0= -.13489461E+04  d E =0.190042E-03  mag=     0.0000
       N       E                     dE             d eps       ncg     rms          rms(c)
DAV:   1    -0.132991497106E+04   -0.15585E-03   -0.84321E-02  5088   0.198E-01    0.137E-01
DAV:   2    -0.132991477967E+04    0.19139E-03   -0.16422E-03  5312   0.287E-02    0.788E-02
DAV:   3    -0.132991472853E+04    0.51133E-04   -0.98914E-04  5472   0.198E-02    0.298E-02
DAV:   4    -0.132991470934E+04    0.19191E-04   -0.10739E-04  5472   0.677E-03    0.181E-02
DAV:   5    -0.132991470740E+04    0.19455E-05   -0.32983E-05  6112   0.396E-03    0.367E-03
DAV:   6    -0.132991470719E+04    0.20908E-06   -0.26034E-06  5632   0.136E-03    0.140E-03
DAV:   7    -0.132991470717E+04    0.14494E-07   -0.40149E-07  5376   0.462E-04    0.988E-04
DAV:   8    -0.132991470722E+04   -0.46362E-07   -0.42935E-08  3936   0.257E-04    0.470E-04
DAV:   9    -0.132991470729E+04   -0.74055E-07   -0.31854E-08  3872   0.225E-04    0.191E-04
DAV:  10    -0.132991470742E+04   -0.12822E-06   -0.15518E-08  3808   0.159E-04    0.146E-04
DAV:  11    -0.132991470754E+04   -0.11518E-06   -0.55753E-09  3360   0.116E-04    0.888E-05
DAV:  12    -0.132991470768E+04   -0.14126E-06   -0.10663E-08  3552   0.141E-04    0.608E-05
DAV:  13    -0.132991470774E+04   -0.64741E-07   -0.55568E-09  3392   0.115E-04    0.603E-05
DAV:  14    -0.132991470779E+04   -0.50131E-07   -0.28039E-09  3200   0.827E-05    0.284E-05
DAV:  15    -0.132991470785E+04   -0.62253E-07   -0.34130E-09  3424   0.684E-05    0.419E-05
DAV:  16    -0.132991470787E+04   -0.13373E-07   -0.35083E-10  3008   0.443E-05    0.322E-05
DAV:  17    -0.132991470789E+04   -0.20576E-07   -0.14638E-10  3072   0.402E-05    0.252E-05
DAV:  18    -0.132991470790E+04   -0.13155E-07    0.31365E-10  3072   0.264E-05    0.239E-05
DAV:  19    -0.132991470791E+04   -0.69849E-08    0.65131E-10  2944   0.209E-05
  19 F= -.13489458E+04 E0= -.13489458E+04  d E =0.263432E-03  mag=    -0.0000
       N       E                     dE             d eps       ncg     rms          rms(c)
DAV:   1    -0.132991560741E+04   -0.89951E-03   -0.76692E-02  5088   0.183E-01    0.102E-01
DAV:   2    -0.132991557070E+04    0.36712E-04   -0.10371E-03  5568   0.213E-02    0.625E-02
DAV:   3    -0.132991555071E+04    0.19993E-04   -0.51447E-04  5280   0.142E-02    0.214E-02
DAV:   4    -0.132991554085E+04    0.98569E-05   -0.64564E-05  5312   0.493E-03    0.137E-02
DAV:   5    -0.132991553925E+04    0.16043E-05   -0.22637E-05  5280   0.298E-03    0.323E-03
DAV:   6    -0.132991553935E+04   -0.10389E-06   -0.21275E-06  5088   0.961E-04    0.129E-03
DAV:   7    -0.132991553956E+04   -0.20840E-06   -0.43683E-07  5088   0.418E-04    0.849E-04
DAV:   8    -0.132991553977E+04   -0.20940E-06   -0.58195E-08  3936   0.214E-04    0.380E-04
DAV:   9    -0.132991554004E+04   -0.26952E-06   -0.45692E-08  4000   0.196E-04    0.230E-04
DAV:  10    -0.132991554021E+04   -0.16799E-06   -0.88048E-09  3520   0.103E-04    0.121E-04
DAV:  11    -0.132991554036E+04   -0.15815E-06   -0.70025E-09  3424   0.837E-05    0.733E-05
DAV:  12    -0.132991554048E+04   -0.11534E-06   -0.46838E-09  3392   0.733E-05    0.464E-05
DAV:  13    -0.132991554056E+04   -0.81593E-07   -0.33558E-09  3296   0.628E-05    0.339E-05
DAV:  14    -0.132991554061E+04   -0.46130E-07   -0.17210E-09  3232   0.581E-05    0.212E-05
DAV:  15    -0.132991554065E+04   -0.38330E-07   -0.14932E-09  3200   0.545E-05    0.182E-05
DAV:  16    -0.132991554066E+04   -0.12355E-07   -0.20475E-10  3136   0.360E-05    0.170E-05
DAV:  17    -0.132991554067E+04   -0.12893E-07   -0.58778E-12  3072   0.267E-05    0.120E-05
DAV:  18    -0.132991554067E+04   -0.34051E-08    0.47136E-10  3008   0.196E-05
  20 F= -.13489468E+04 E0= -.13489468E+04  d E =-.100533E-02  mag=     0.0000
       N       E                     dE             d eps       ncg     rms          rms(c)
DAV:   1    -0.132991413231E+04    0.14084E-02   -0.74047E-02  5248   0.142E-01    0.106E-01
DAV:   2    -0.132991402229E+04    0.11002E-03   -0.65510E-04  5440   0.165E-02    0.595E-02
DAV:   3    -0.132991400827E+04    0.14026E-04   -0.39954E-04  5408   0.121E-02    0.194E-02
DAV:   4    -0.132991400048E+04    0.77921E-05   -0.46396E-05  5440   0.419E-03    0.125E-02
DAV:   5    -0.132991399971E+04    0.76900E-06   -0.17673E-05  5472   0.273E-03    0.248E-03
DAV:   6    -0.132991399985E+04   -0.14188E-06   -0.13655E-06  5600   0.101E-03    0.123E-03
DAV:   7    -0.132991400002E+04   -0.16880E-06   -0.20739E-07  5120   0.338E-04    0.998E-04
DAV:   8    -0.132991400029E+04   -0.27692E-06   -0.77008E-08  4256   0.277E-04    0.309E-04
DAV:   9    -0.132991400050E+04   -0.20467E-06   -0.26847E-08  4096   0.179E-04    0.273E-04
DAV:  10    -0.132991400070E+04   -0.20364E-06   -0.10937E-08  3488   0.121E-04    0.138E-04
DAV:  11    -0.132991400091E+04   -0.20977E-06   -0.90605E-09  3456   0.109E-04    0.822E-05
DAV:  12    -0.132991400109E+04   -0.17438E-06   -0.11131E-08  3648   0.107E-04    0.744E-05
DAV:  13    -0.132991400116E+04   -0.74884E-07   -0.30304E-09  3264   0.676E-05    0.630E-05
DAV:  14    -0.132991400123E+04   -0.63723E-07   -0.27470E-09  3264   0.587E-05    0.395E-05
DAV:  15    -0.132991400126E+04   -0.33528E-07   -0.12618E-09  3200   0.518E-05    0.270E-05
DAV:  16    -0.132991400128E+04   -0.23996E-07   -0.63603E-10  3152   0.432E-05    0.236E-05
DAV:  17    -0.132991400130E+04   -0.14494E-07   -0.15477E-10  3184   0.340E-05    0.221E-05
DAV:  18    -0.132991400131E+04   -0.11016E-07    0.38512E-10  3136   0.227E-05    0.116E-05
DAV:  19    -0.132991400131E+04   -0.40745E-09    0.57433E-10  2944   0.168E-05
  21 F= -.13489453E+04 E0= -.13489453E+04  d E =0.146963E-02  mag=     0.0000
       N       E                     dE             d eps       ncg     rms          rms(c)
DAV:   1    -0.132991544846E+04   -0.14471E-02   -0.76783E-02  5120   0.146E-01    0.116E-01
DAV:   2    -0.132991531301E+04    0.13544E-03   -0.90603E-04  5472   0.202E-02    0.633E-02
DAV:   3    -0.132991529569E+04    0.17325E-04   -0.49314E-04  5504   0.134E-02    0.218E-02
DAV:   4    -0.132991528627E+04    0.94191E-05   -0.52891E-05  5824   0.462E-03    0.132E-02
DAV:   5    -0.132991528597E+04    0.30185E-06   -0.17942E-05  5984   0.282E-03    0.232E-03
DAV:   6    -0.132991528597E+04   -0.62719E-08   -0.10507E-06  5536   0.874E-04    0.118E-03
DAV:   7    -0.132991528607E+04   -0.96858E-07   -0.22870E-07  4736   0.319E-04    0.840E-04
DAV:   8    -0.132991528617E+04   -0.97396E-07   -0.33760E-08  3936   0.227E-04    0.312E-04
DAV:   9    -0.132991528626E+04   -0.90600E-07   -0.23655E-08  3968   0.183E-04    0.190E-04
DAV:  10    -0.132991528632E+04   -0.66851E-07   -0.58445E-09  3488   0.110E-04    0.117E-04
DAV:  11    -0.132991528640E+04   -0.72600E-07   -0.31563E-09  3200   0.923E-05    0.686E-05
DAV:  12    -0.132991528647E+04   -0.68991E-07   -0.51857E-09  3456   0.104E-04    0.456E-05
DAV:  13    -0.132991528650E+04   -0.35929E-07   -0.22186E-09  3200   0.673E-05    0.440E-05
DAV:  14    -0.132991528653E+04   -0.24491E-07   -0.13342E-09  3200   0.534E-05    0.221E-05
DAV:  15    -0.132991528654E+04   -0.15396E-07   -0.10679E-09  3200   0.498E-05    0.220E-05
DAV:  16    -0.132991528655E+04   -0.54715E-08    0.24814E-11  3008   0.327E-05
  22 F= -.13489465E+04 E0= -.13489465E+04  d E =-.112136E-02  mag=     0.0000
       N       E                     dE             d eps       ncg     rms          rms(c)
DAV:   1    -0.132991537331E+04   -0.86768E-04   -0.74018E-02  5056   0.173E-01    0.874E-02
DAV:   2    -0.132991536053E+04    0.12783E-04   -0.54222E-04  5568   0.156E-02    0.511E-02
DAV:   3    -0.132991535349E+04    0.70418E-05   -0.18334E-04  5792   0.868E-03    0.111E-02
DAV:   4    -0.132991535204E+04    0.14487E-05   -0.21384E-05  5696   0.285E-03    0.688E-03
DAV:   5    -0.132991535152E+04    0.51515E-06   -0.74953E-06  5472   0.176E-03    0.170E-03
DAV:   6    -0.132991535166E+04   -0.14332E-06   -0.52342E-07  5200   0.604E-04    0.994E-04
DAV:   7    -0.132991535182E+04   -0.15477E-06   -0.12242E-07  4064   0.251E-04    0.378E-04
DAV:   8    -0.132991535201E+04   -0.19485E-06   -0.30219E-08  3872   0.135E-04    0.195E-04
DAV:   9    -0.132991535220E+04   -0.18763E-06   -0.83370E-09  3616   0.106E-04    0.111E-04
DAV:  10    -0.132991535244E+04   -0.23704E-06   -0.10566E-08  3712   0.116E-04    0.763E-05
DAV:  11    -0.132991535260E+04   -0.15723E-06   -0.69764E-09  3488   0.111E-04    0.649E-05
DAV:  12    -0.132991535274E+04   -0.14661E-06   -0.81582E-09  3520   0.123E-04    0.358E-05
DAV:  13    -0.132991535282E+04   -0.72556E-07   -0.46349E-09  3296   0.108E-04    0.329E-05
DAV:  14    -0.132991535287E+04   -0.56694E-07   -0.23485E-09  3232   0.707E-05    0.171E-05
DAV:  15    -0.132991535292E+04   -0.46202E-07   -0.11477E-09  3200   0.441E-05    0.199E-05
DAV:  16    -0.132991535293E+04   -0.14290E-07    0.16031E-10  3136   0.275E-05    0.115E-05
DAV:  17    -0.132991535295E+04   -0.13097E-07    0.26865E-10  3136   0.245E-05    0.180E-05
DAV:  18    -0.132991535295E+04   -0.94296E-08    0.53533E-10  3136   0.181E-05
  23 F= -.13489466E+04 E0= -.13489466E+04  d E =-.160945E-03  mag=     0.0000
       N       E                     dE             d eps       ncg     rms          rms(c)
DAV:   1    -0.132991491634E+04    0.43661E-03   -0.76945E-02  5216   0.179E-01    0.109E-01
DAV:   2    -0.132991483498E+04    0.81350E-04   -0.88338E-04  5440   0.211E-02    0.627E-02
DAV:   3    -0.132991481412E+04    0.20861E-04   -0.48466E-04  5664   0.135E-02    0.206E-02
DAV:   4    -0.132991480519E+04    0.89313E-05   -0.50585E-05  5600   0.456E-03    0.125E-02
DAV:   5    -0.132991480418E+04    0.10096E-05   -0.19333E-05  5728   0.279E-03    0.225E-03
DAV:   6    -0.132991480424E+04   -0.55836E-07   -0.11546E-06  5376   0.872E-04    0.110E-03
DAV:   7    -0.132991480436E+04   -0.11698E-06   -0.22187E-07  4992   0.311E-04    0.736E-04
DAV:   8    -0.132991480446E+04   -0.10553E-06   -0.33701E-08  4032   0.195E-04    0.286E-04
DAV:   9    -0.132991480455E+04   -0.93642E-07   -0.13923E-08  3808   0.131E-04    0.135E-04
DAV:  10    -0.132991480462E+04   -0.64581E-07   -0.32940E-09  3328   0.843E-05    0.833E-05
DAV:  11    -0.132991480468E+04   -0.65134E-07   -0.16785E-09  3152   0.696E-05    0.571E-05
DAV:  12    -0.132991480476E+04   -0.72847E-07   -0.30042E-09  3264   0.861E-05    0.338E-05
DAV:  13    -0.132991480480E+04   -0.41109E-07   -0.18233E-09  3200   0.681E-05    0.328E-05
DAV:  14    -0.132991480482E+04   -0.21435E-07   -0.96721E-10  3072   0.571E-05    0.217E-05
DAV:  15    -0.132991480484E+04   -0.17084E-07   -0.80010E-10  3136   0.479E-05    0.170E-05
DAV:  16    -0.132991480484E+04   -0.65193E-08    0.26911E-10  3104   0.299E-05
  24 F= -.13489462E+04 E0= -.13489462E+04  d E =0.413917E-03  mag=     0.0000
       N       E                     dE             d eps       ncg     rms          rms(c)
DAV:   1    -0.132991521883E+04   -0.41400E-03   -0.81361E-02  5184   0.184E-01    0.129E-01
DAV:   2    -0.132991506098E+04    0.15785E-03   -0.12516E-03  5440   0.252E-02    0.737E-02
DAV:   3    -0.132991502588E+04    0.35099E-04   -0.78826E-04  5344   0.169E-02    0.266E-02
DAV:   4    -0.132991501060E+04    0.15286E-04   -0.84353E-05  5440   0.569E-03    0.164E-02
DAV:   5    -0.132991500883E+04    0.17703E-05   -0.24784E-05  6016   0.316E-03    0.342E-03
DAV:   6    -0.132991500867E+04    0.16087E-06   -0.19789E-06  5408   0.110E-03    0.116E-03
DAV:   7    -0.132991500872E+04   -0.51397E-07   -0.35272E-07  5184   0.422E-04    0.848E-04
DAV:   8    -0.132991500883E+04   -0.11412E-06   -0.44031E-08  3840   0.231E-04    0.358E-04
DAV:   9    -0.132991500895E+04   -0.11713E-06   -0.25218E-08  3808   0.158E-04    0.175E-04
DAV:  10    -0.132991500907E+04   -0.12056E-06   -0.66795E-09  3264   0.103E-04    0.114E-04
DAV:  11    -0.132991500918E+04   -0.11631E-06   -0.48775E-09  3392   0.833E-05    0.786E-05
DAV:  12    -0.132991500931E+04   -0.12359E-06   -0.63035E-09  3328   0.922E-05    0.455E-05
DAV:  13    -0.132991500938E+04   -0.76689E-07   -0.43376E-09  3328   0.818E-05    0.471E-05
DAV:  14    -0.132991500943E+04   -0.40440E-07   -0.20068E-09  3200   0.614E-05    0.363E-05
DAV:  15    -0.132991500947E+04   -0.42768E-07   -0.15636E-09  3264   0.449E-05    0.203E-05
DAV:  16    -0.132991500949E+04   -0.20547E-07   -0.46631E-10  3136   0.340E-05    0.200E-05
DAV:  17    -0.132991500950E+04   -0.11263E-07    0.21308E-10  3136   0.245E-05    0.127E-05
DAV:  18    -0.132991500951E+04   -0.11147E-07    0.29720E-10  3136   0.203E-05    0.133E-05
DAV:  19    -0.132991500952E+04   -0.47003E-08    0.57422E-10  3072   0.144E-05
  25 F= -.13489461E+04 E0= -.13489461E+04  d E =0.155998E-03  mag=    -0.0000
       N       E                     dE             d eps       ncg     rms          rms(c)
DAV:   1    -0.132991539013E+04   -0.38062E-03   -0.76702E-02  5056   0.175E-01    0.104E-01
DAV:   2    -0.132991535366E+04    0.36473E-04   -0.11065E-03  5472   0.226E-02    0.643E-02
DAV:   3    -0.132991532869E+04    0.24963E-04   -0.58025E-04  5632   0.160E-02    0.217E-02
DAV:   4    -0.132991531959E+04    0.91036E-05   -0.66685E-05  5760   0.606E-03    0.136E-02
DAV:   5    -0.132991531830E+04    0.12908E-05   -0.23452E-05  5728   0.332E-03    0.305E-03
DAV:   6    -0.132991531850E+04   -0.20080E-06   -0.15453E-06  5536   0.962E-04    0.138E-03
DAV:   7    -0.132991531879E+04   -0.29519E-06   -0.41670E-07  4928   0.442E-04    0.738E-04
DAV:   8    -0.132991531901E+04   -0.21335E-06   -0.54760E-08  4000   0.225E-04    0.349E-04
DAV:   9    -0.132991531920E+04   -0.19124E-06   -0.15861E-08  3808   0.119E-04    0.133E-04
DAV:  10    -0.132991531932E+04   -0.12093E-06   -0.35806E-09  3328   0.686E-05    0.791E-05
DAV:  11    -0.132991531947E+04   -0.14734E-06   -0.49357E-09  3440   0.612E-05    0.529E-05
DAV:  12    -0.132991531957E+04   -0.10250E-06   -0.29860E-09  3328   0.607E-05    0.341E-05
DAV:  13    -0.132991531965E+04   -0.81724E-07   -0.32724E-09  3360   0.608E-05    0.316E-05
DAV:  14    -0.132991531968E+04   -0.28420E-07   -0.96269E-10  3136   0.573E-05    0.213E-05
DAV:  15    -0.132991531971E+04   -0.30370E-07   -0.12422E-09  3200   0.550E-05    0.251E-05
DAV:  16    -0.132991531972E+04   -0.14130E-07    0.55417E-11  3136   0.364E-05    0.217E-05
DAV:  17    -0.132991531973E+04   -0.49040E-08    0.47276E-10  2944   0.215E-05
  26 F= -.13489467E+04 E0= -.13489467E+04  d E =-.627654E-03  mag=    -0.0000
       N       E                     dE             d eps       ncg     rms          rms(c)
DAV:   1    -0.132991514572E+04    0.17401E-03   -0.77607E-02  4992   0.146E-01    0.112E-01
DAV:   2    -0.132991501725E+04    0.12847E-03   -0.98081E-04  5408   0.187E-02    0.625E-02
DAV:   3    -0.132991500278E+04    0.14470E-04   -0.43012E-04  5600   0.114E-02    0.201E-02
DAV:   4    -0.132991499470E+04    0.80855E-05   -0.65152E-05  5664   0.579E-03    0.977E-03
DAV:   5    -0.132991499587E+04   -0.11783E-05   -0.79117E-06  6016   0.240E-03    0.237E-03
DAV:   6    -0.132991499608E+04   -0.21147E-06   -0.63077E-07  5728   0.789E-04    0.117E-03
DAV:   7    -0.132991499643E+04   -0.34031E-06   -0.15731E-07  5520   0.411E-04    0.498E-04
DAV:   8    -0.132991499667E+04   -0.24153E-06   -0.27967E-08  3968   0.210E-04    0.256E-04
DAV:   9    -0.132991499698E+04   -0.31688E-06   -0.14489E-08  3648   0.128E-04    0.160E-04
DAV:  10    -0.132991499721E+04   -0.22526E-06   -0.53083E-09  3520   0.816E-05    0.963E-05
DAV:  11    -0.132991499754E+04   -0.32609E-06   -0.14412E-08  3568   0.103E-04    0.101E-04
DAV:  12    -0.132991499762E+04   -0.88010E-07   -0.17299E-09  3264   0.649E-05    0.750E-05
DAV:  13    -0.132991499778E+04   -0.15918E-06   -0.79481E-09  3360   0.100E-04    0.850E-05
DAV:  14    -0.132991499783E+04   -0.51747E-07   -0.21050E-09  3264   0.714E-05    0.754E-05
DAV:  15    -0.132991499786E+04   -0.22206E-07   -0.65177E-10  3136   0.501E-05    0.274E-05
DAV:  16    -0.132991499787E+04   -0.15061E-07    0.10213E-11  3072   0.377E-05    0.174E-05
DAV:  17    -0.132991499788E+04   -0.12995E-07   -0.15038E-10  3136   0.327E-05    0.371E-05
DAV:  18    -0.132991499789E+04   -0.28522E-08    0.60944E-10  3072   0.224E-05
  27 F= -.13489463E+04 E0= -.13489463E+04  d E =0.374334E-03  mag=    -0.0000
       N       E                     dE             d eps       ncg     rms          rms(c)
DAV:   1    -0.132991475931E+04    0.23857E-03   -0.83606E-02  4992   0.151E-01    0.137E-01
DAV:   2    -0.132991453430E+04    0.22501E-03   -0.17117E-03  5408   0.248E-02    0.752E-02
DAV:   3    -0.132991449414E+04    0.40157E-04   -0.70519E-04  5568   0.146E-02    0.265E-02
DAV:   4    -0.132991447933E+04    0.14813E-04   -0.11705E-04  5696   0.735E-03    0.127E-02
DAV:   5    -0.132991447962E+04   -0.29121E-06   -0.10938E-05  5952   0.301E-03    0.295E-03
DAV:   6    -0.132991447976E+04   -0.13571E-06   -0.11506E-06  6048   0.107E-03    0.146E-03
DAV:   7    -0.132991448012E+04   -0.35863E-06   -0.28061E-07  5616   0.584E-04    0.618E-04
DAV:   8    -0.132991448040E+04   -0.28213E-06   -0.69127E-08  4544   0.298E-04    0.321E-04
DAV:   9    -0.132991448081E+04   -0.41242E-06   -0.23320E-08  3968   0.162E-04    0.211E-04
DAV:  10    -0.132991448114E+04   -0.32991E-06   -0.10963E-08  3520   0.116E-04    0.121E-04
DAV:  11    -0.132991448160E+04   -0.46266E-06   -0.25837E-08  4064   0.152E-04    0.128E-04
DAV:  12    -0.132991448176E+04   -0.15773E-06   -0.45108E-09  3456   0.833E-05    0.839E-05
DAV:  13    -0.132991448201E+04   -0.24471E-06   -0.12775E-08  3776   0.109E-04    0.986E-05
DAV:  14    -0.132991448208E+04   -0.76383E-07   -0.21562E-09  3264   0.707E-05    0.748E-05
DAV:  15    -0.132991448215E+04   -0.62748E-07   -0.23979E-09  3200   0.700E-05    0.283E-05
DAV:  16    -0.132991448219E+04   -0.47992E-07   -0.99682E-10  3136   0.533E-05    0.338E-05
DAV:  17    -0.132991448223E+04   -0.36322E-07   -0.29341E-10  3136   0.344E-05    0.267E-05
DAV:  18    -0.132991448225E+04   -0.23050E-07    0.58864E-11  3136   0.361E-05    0.121E-05
DAV:  19    -0.132991448226E+04   -0.11030E-07    0.41116E-10  3072   0.242E-05    0.197E-05
DAV:  20    -0.132991448227E+04   -0.56461E-08    0.67659E-10  3040   0.137E-05
  28 F= -.13489459E+04 E0= -.13489459E+04  d E =0.421015E-03  mag=     0.0000
       N       E                     dE             d eps       ncg     rms          rms(c)
DAV:   1    -0.132991570791E+04   -0.12256E-02   -0.67787E-02  5248   0.181E-01    0.978E-02
DAV:   2    -0.132991563254E+04    0.75365E-04   -0.15976E-03  6048   0.332E-02    0.565E-02
DAV:   3    -0.132991560700E+04    0.25544E-04   -0.32670E-04  6016   0.182E-02    0.243E-02
DAV:   4    -0.132991560457E+04    0.24318E-05   -0.28282E-05  5952   0.643E-03    0.113E-02
DAV:   5    -0.132991560331E+04    0.12629E-05   -0.14939E-05  6208   0.452E-03    0.411E-03
DAV:   6    -0.132991560321E+04    0.99913E-07   -0.27368E-06  6560   0.224E-03    0.179E-03
DAV:   7    -0.132991560335E+04   -0.14628E-06   -0.52568E-07  5568   0.807E-04    0.107E-03
DAV:   8    -0.132991560375E+04   -0.40006E-06   -0.15123E-07  5600   0.575E-04    0.629E-04
DAV:   9    -0.132991560442E+04   -0.66945E-06   -0.10922E-07  5152   0.497E-04    0.439E-04
DAV:  10    -0.132991560515E+04   -0.72706E-06   -0.72748E-08  4768   0.388E-04    0.249E-04
DAV:  11    -0.132991560579E+04   -0.64434E-06   -0.38512E-08  4256   0.244E-04    0.187E-04
DAV:  12    -0.132991560640E+04   -0.60396E-06   -0.26899E-08  3840   0.168E-04    0.101E-04
DAV:  13    -0.132991560677E+04   -0.37131E-06   -0.16361E-08  3776   0.113E-04    0.733E-05
DAV:  14    -0.132991560701E+04   -0.23826E-06   -0.65676E-09  3392   0.654E-05    0.506E-05
DAV:  15    -0.132991560718E+04   -0.17643E-06   -0.50834E-09  3264   0.556E-05    0.307E-05
DAV:  16    -0.132991560730E+04   -0.12177E-06   -0.38363E-09  3264   0.558E-05    0.306E-05
DAV:  17    -0.132991560734E+04   -0.31738E-07   -0.56422E-10  3136   0.404E-05    0.212E-05
DAV:  18    -0.132991560736E+04   -0.28725E-07   -0.12564E-10  3072   0.373E-05    0.120E-05
DAV:  19    -0.132991560738E+04   -0.19660E-07    0.65177E-11  3072   0.327E-05    0.200E-05
DAV:  20    -0.132991560739E+04   -0.45547E-08    0.64095E-10  2944   0.174E-05
  29 F= -.13489471E+04 E0= -.13489471E+04  d E =-.121999E-02  mag=     0.0000
       N       E                     dE             d eps       ncg     rms          rms(c)
DAV:   1    -0.132991522741E+04    0.37997E-03   -0.55286E-02  5248   0.167E-01    0.505E-02
DAV:   2    -0.132991527583E+04   -0.48417E-04   -0.78873E-04  6144   0.259E-02    0.329E-02
DAV:   3    -0.132991527333E+04    0.25011E-05   -0.59224E-05  6176   0.105E-02    0.178E-02
DAV:   4    -0.132991527307E+04    0.25102E-06   -0.20511E-05  5568   0.685E-03    0.657E-03
DAV:   5    -0.132991527237E+04    0.70025E-06   -0.83437E-06  6720   0.369E-03    0.304E-03
DAV:   6    -0.132991527226E+04    0.10905E-06   -0.10726E-06  5824   0.143E-03    0.171E-03
DAV:   7    -0.132991527227E+04   -0.36380E-09   -0.23769E-07  6400   0.903E-04    0.889E-04
DAV:   8    -0.132991527253E+04   -0.26377E-06   -0.10423E-07  5248   0.626E-04    0.512E-04
DAV:   9    -0.132991527302E+04   -0.48865E-06   -0.90188E-08  5232   0.546E-04    0.295E-04
DAV:  10    -0.132991527348E+04   -0.45898E-06   -0.60475E-08  4640   0.370E-04    0.227E-04
DAV:  11    -0.132991527389E+04   -0.41710E-06   -0.17171E-08  3712   0.216E-04    0.137E-04
DAV:  12    -0.132991527432E+04   -0.43061E-06   -0.20551E-08  3936   0.178E-04    0.869E-05
DAV:  13    -0.132991527459E+04   -0.27033E-06   -0.12358E-08  3744   0.112E-04    0.596E-05
DAV:  14    -0.132991527476E+04   -0.16548E-06   -0.41284E-09  3328   0.607E-05    0.388E-05
DAV:  15    -0.132991527488E+04   -0.11784E-06   -0.34142E-09  3264   0.521E-05    0.234E-05
DAV:  16    -0.132991527494E+04   -0.61700E-07   -0.22802E-09  3264   0.540E-05    0.193E-05
DAV:  17    -0.132991527496E+04   -0.24287E-07   -0.88265E-10  3200   0.425E-05    0.153E-05
DAV:  18    -0.132991527498E+04   -0.11380E-07   -0.17236E-10  3072   0.319E-05    0.707E-06
DAV:  19    -0.132991527498E+04   -0.42637E-08    0.41247E-10  3072   0.217E-05
  30 F= -.13489466E+04 E0= -.13489466E+04  d E =0.553209E-03  mag=    -0.0000
       N       E                     dE             d eps       ncg     rms          rms(c)
DAV:   1    -0.132991578377E+04   -0.50879E-03   -0.56126E-02  5216   0.170E-01    0.623E-02
DAV:   2    -0.132991581380E+04   -0.30032E-04   -0.12229E-03  6400   0.332E-02    0.385E-02
DAV:   3    -0.132991580268E+04    0.11118E-04   -0.99741E-05  6432   0.129E-02    0.218E-02
DAV:   4    -0.132991579615E+04    0.65329E-05   -0.35031E-05  5632   0.843E-03    0.783E-03
DAV:   5    -0.132991579430E+04    0.18485E-05   -0.11937E-05  6592   0.464E-03    0.397E-03
DAV:   6    -0.132991579371E+04    0.58615E-06   -0.21629E-06  6240   0.179E-03    0.256E-03
DAV:   7    -0.132991579337E+04    0.34462E-06   -0.54548E-07  5792   0.136E-03    0.122E-03
DAV:   8    -0.132991579372E+04   -0.35089E-06   -0.29616E-07  5856   0.104E-03    0.800E-04
DAV:   9    -0.132991579462E+04   -0.90293E-06   -0.21750E-07  5648   0.808E-04    0.419E-04
DAV:  10    -0.132991579551E+04   -0.88746E-06   -0.11486E-07  5120   0.517E-04    0.372E-04
DAV:  11    -0.132991579638E+04   -0.87534E-06   -0.40512E-08  4256   0.323E-04    0.206E-04
DAV:  12    -0.132991579723E+04   -0.84925E-06   -0.41720E-08  4128   0.257E-04    0.140E-04
DAV:  13    -0.132991579779E+04   -0.55855E-06   -0.25194E-08  3776   0.171E-04    0.841E-05
DAV:  14    -0.132991579816E+04   -0.37310E-06   -0.96431E-09  3520   0.848E-05    0.560E-05
DAV:  15    -0.132991579840E+04   -0.23357E-06   -0.60054E-09  3328   0.659E-05    0.351E-05
DAV:  16    -0.132991579855E+04   -0.15124E-06   -0.48099E-09  3328   0.737E-05    0.278E-05
DAV:  17    -0.132991579861E+04   -0.56185E-07   -0.24068E-09  3232   0.684E-05    0.211E-05
DAV:  18    -0.132991579862E+04   -0.17331E-07   -0.76245E-10  3104   0.477E-05    0.116E-05
DAV:  19    -0.132991579863E+04   -0.94442E-08    0.33350E-11  3072   0.305E-05
  31 F= -.13489464E+04 E0= -.13489464E+04  d E =0.126603E-03  mag=    -0.0000
       N       E                     dE             d eps       ncg     rms          rms(c)
DAV:   1    -0.132991526528E+04    0.53335E-03   -0.66561E-02  5184   0.196E-01    0.820E-02
DAV:   2    -0.132991531644E+04   -0.51166E-04   -0.16464E-03  6144   0.369E-02    0.548E-02
DAV:   3    -0.132991528952E+04    0.26921E-04   -0.20095E-04  6016   0.177E-02    0.276E-02
DAV:   4    -0.132991528387E+04    0.56536E-05   -0.41223E-05  5664   0.894E-03    0.101E-02
DAV:   5    -0.132991528160E+04    0.22714E-05   -0.17512E-05  6272   0.525E-03    0.444E-03
DAV:   6    -0.132991528132E+04    0.27572E-06   -0.24270E-06  6176   0.186E-03    0.249E-03
DAV:   7    -0.132991528156E+04   -0.23756E-06   -0.68068E-07  5760   0.131E-03    0.122E-03
DAV:   8    -0.132991528228E+04   -0.72473E-06   -0.22074E-07  5888   0.869E-04    0.710E-04
DAV:   9    -0.132991528333E+04   -0.10497E-05   -0.19463E-07  6048   0.816E-04    0.399E-04
DAV:  10    -0.132991528432E+04   -0.98941E-06   -0.12337E-07  4800   0.541E-04    0.319E-04
DAV:  11    -0.132991528520E+04   -0.88046E-06   -0.40857E-08  4384   0.331E-04    0.186E-04
DAV:  12    -0.132991528593E+04   -0.72482E-06   -0.33225E-08  4000   0.238E-04    0.115E-04
DAV:  13    -0.132991528648E+04   -0.55242E-06   -0.23269E-08  3904   0.159E-04    0.802E-05
DAV:  14    -0.132991528684E+04   -0.35952E-06   -0.10492E-08  3520   0.888E-05    0.491E-05
DAV:  15    -0.132991528708E+04   -0.23945E-06   -0.75261E-09  3424   0.804E-05    0.310E-05
DAV:  16    -0.132991528721E+04   -0.13497E-06   -0.47761E-09  3328   0.904E-05    0.248E-05
DAV:  17    -0.132991528728E+04   -0.63461E-07   -0.28057E-09  3264   0.813E-05    0.164E-05
DAV:  18    -0.132991528732E+04   -0.37777E-07   -0.10788E-09  3200   0.516E-05    0.122E-05
DAV:  19    -0.132991528733E+04   -0.12122E-07    0.14528E-10  3136   0.257E-05    0.102E-05
DAV:  20    -0.132991528733E+04   -0.68976E-08    0.49949E-10  3072   0.183E-05
  32 F= -.13489466E+04 E0= -.13489466E+04  d E =-.130942E-03  mag=     0.0000
       N       E                     dE             d eps       ncg     rms          rms(c)
DAV:   1    -0.132991542478E+04   -0.13745E-03   -0.76987E-02  4544   0.169E-01    0.103E-01
DAV:   2    -0.132991537010E+04    0.54677E-04   -0.86770E-04  5248   0.178E-02    0.614E-02
DAV:   3    -0.132991535288E+04    0.17223E-04   -0.49625E-04  5440   0.141E-02    0.210E-02
DAV:   4    -0.132991534347E+04    0.94054E-05   -0.44957E-05  5568   0.463E-03    0.137E-02
DAV:   5    -0.132991534148E+04    0.19997E-05   -0.26014E-05  5152   0.341E-03    0.263E-03
DAV:   6    -0.132991534192E+04   -0.44236E-06   -0.19250E-06  5568   0.121E-03    0.136E-03
DAV:   7    -0.132991534244E+04   -0.52302E-06   -0.36950E-07  5440   0.457E-04    0.109E-03
DAV:   8    -0.132991534311E+04   -0.66841E-06   -0.81603E-08  4128   0.256E-04    0.458E-04
DAV:   9    -0.132991534378E+04   -0.66643E-06   -0.55825E-08  3968   0.175E-04    0.276E-04
DAV:  10    -0.132991534440E+04   -0.62247E-06   -0.22461E-08  3744   0.135E-04    0.184E-04
DAV:  11    -0.132991534496E+04   -0.56322E-06   -0.22171E-08  3840   0.118E-04    0.100E-04
DAV:  12    -0.132991534544E+04   -0.47438E-06   -0.23292E-08  3904   0.118E-04    0.962E-05
DAV:  13    -0.132991534562E+04   -0.18068E-06   -0.45271E-09  3456   0.752E-05    0.766E-05
DAV:  14    -0.132991534583E+04   -0.21269E-06   -0.68154E-09  3456   0.788E-05    0.454E-05
DAV:  15    -0.132991534592E+04   -0.88796E-07   -0.21396E-09  3200   0.706E-05    0.357E-05
DAV:  16    -0.132991534597E+04   -0.55647E-07   -0.10223E-09  3136   0.543E-05    0.264E-05
DAV:  17    -0.132991534602E+04   -0.47978E-07   -0.37424E-10  3136   0.384E-05    0.199E-05
DAV:  18    -0.132991534604E+04   -0.18350E-07    0.39442E-10  3072   0.245E-05    0.123E-05
DAV:  19    -0.132991534605E+04   -0.12180E-07    0.60074E-10  3072   0.209E-05    0.115E-05
DAV:  20    -0.132991534606E+04   -0.74506E-08    0.70363E-10  3072   0.144E-05
  33 F= -.13489467E+04 E0= -.13489467E+04  d E =-.129557E-03  mag=    -0.0000
       N       E                     dE             d eps       ncg     rms          rms(c)
DAV:   1    -0.132991448026E+04    0.86579E-03   -0.73336E-02  4512   0.167E-01    0.844E-02
DAV:   2    -0.132991447565E+04    0.46138E-05   -0.57704E-04  5344   0.145E-02    0.510E-02
DAV:   3    -0.132991447134E+04    0.43100E-05   -0.21510E-04  5824   0.101E-02    0.133E-02
DAV:   4    -0.132991446786E+04    0.34737E-05   -0.23973E-05  5760   0.336E-03    0.880E-03
DAV:   5    -0.132991446757E+04    0.29785E-06   -0.14089E-05  5248   0.242E-03    0.183E-03
DAV:   6    -0.132991446793E+04   -0.36630E-06   -0.89917E-07  5376   0.843E-04    0.954E-04
DAV:   7    -0.132991446846E+04   -0.53020E-06   -0.10997E-07  4544   0.266E-04    0.514E-04
DAV:   8    -0.132991446918E+04   -0.71591E-06   -0.47417E-08  3936   0.172E-04    0.265E-04
DAV:   9    -0.132991446984E+04   -0.65907E-06   -0.32409E-08  4000   0.131E-04    0.153E-04
DAV:  10    -0.132991447052E+04   -0.68716E-06   -0.32925E-08  4128   0.110E-04    0.121E-04
DAV:  11    -0.132991447091E+04   -0.38510E-06   -0.14317E-08  3584   0.764E-05    0.930E-05
DAV:  12    -0.132991447122E+04   -0.30601E-06   -0.13353E-08  3632   0.901E-05    0.516E-05
DAV:  13    -0.132991447136E+04   -0.14453E-06   -0.45070E-09  3328   0.703E-05    0.557E-05
DAV:  14    -0.132991447146E+04   -0.97090E-07   -0.27280E-09  3264   0.530E-05    0.360E-05
DAV:  15    -0.132991447152E+04   -0.66226E-07   -0.18341E-09  3264   0.489E-05    0.248E-05
DAV:  16    -0.132991447154E+04   -0.14828E-07   -0.18544E-10  3136   0.331E-05    0.178E-05
DAV:  17    -0.132991447155E+04   -0.17099E-07    0.23659E-10  3072   0.266E-05    0.115E-05
DAV:  18    -0.132991447157E+04   -0.16153E-07    0.43518E-10  3072   0.209E-05    0.183E-05
DAV:  19    -0.132991447157E+04   -0.26048E-08    0.74635E-10  2944   0.135E-05
  34 F= -.13489458E+04 E0= -.13489458E+04  d E =0.932581E-03  mag=    -0.0000
       N       E                     dE             d eps       ncg     rms          rms(c)
DAV:   1    -0.132991345753E+04    0.10140E-02   -0.28549E-01  5056   0.390E-01    0.131E-01
DAV:   2    -0.132991350068E+04   -0.43152E-04   -0.31946E-03  5536   0.395E-02    0.826E-02
DAV:   3    -0.132991340828E+04    0.92403E-04   -0.74292E-04  5760   0.183E-02    0.248E-02
DAV:   4    -0.132991341082E+04   -0.25476E-05   -0.12423E-04  5888   0.669E-03    0.134E-02
DAV:   5    -0.132991340940E+04    0.14264E-05   -0.17452E-05  5824   0.282E-03    0.474E-03
DAV:   6    -0.132991340972E+04   -0.32457E-06   -0.22473E-06  5344   0.122E-03    0.173E-03
DAV:   7    -0.132991341011E+04   -0.38488E-06   -0.56829E-07  5888   0.627E-04    0.793E-04
DAV:   8    -0.132991341048E+04   -0.37374E-06   -0.99048E-08  4384   0.295E-04    0.347E-04
DAV:   9    -0.132991341078E+04   -0.30042E-06   -0.26104E-08  4064   0.203E-04    0.197E-04
DAV:  10    -0.132991341103E+04   -0.24475E-06   -0.10937E-08  3712   0.136E-04    0.134E-04
DAV:  11    -0.132991341139E+04   -0.35977E-06   -0.22268E-08  3808   0.180E-04    0.831E-05
DAV:  12    -0.132991341155E+04   -0.16108E-06   -0.10218E-08  3776   0.121E-04    0.690E-05
DAV:  13    -0.132991341165E+04   -0.10245E-06   -0.33295E-09  3200   0.783E-05    0.382E-05
DAV:  14    -0.132991341173E+04   -0.81156E-07   -0.30368E-09  3200   0.653E-05    0.319E-05
DAV:  15    -0.132991341177E+04   -0.41022E-07   -0.12974E-09  3136   0.569E-05    0.230E-05
DAV:  16    -0.132991341180E+04   -0.29861E-07   -0.63083E-10  3136   0.415E-05    0.150E-05
DAV:  17    -0.132991341181E+04   -0.12049E-07    0.12643E-10  3072   0.301E-05    0.166E-05
DAV:  18    -0.132991341182E+04   -0.56170E-08    0.53305E-10  3072   0.214E-05
  35 F= -.13489447E+04 E0= -.13489447E+04  d E =0.104078E-02  mag=     0.0000
       N       E                     dE             d eps       ncg     rms          rms(c)
DAV:   1    -0.132991323860E+04    0.17322E-03   -0.49003E-01  5120   0.504E-01    0.141E-01
DAV:   2    -0.132991322704E+04    0.11556E-04   -0.33451E-03  5504   0.407E-02    0.863E-02
DAV:   3    -0.132991311557E+04    0.11147E-03   -0.64483E-04  5760   0.179E-02    0.185E-02
DAV:   4    -0.132991312622E+04   -0.10644E-04   -0.13608E-04  6112   0.554E-03    0.909E-03
DAV:   5    -0.132991312576E+04    0.45401E-06   -0.11813E-05  6144   0.240E-03    0.441E-03
DAV:   6    -0.132991312630E+04   -0.53445E-06   -0.12500E-06  5824   0.107E-03    0.200E-03
DAV:   7    -0.132991312704E+04   -0.74400E-06   -0.32767E-07  5440   0.636E-04    0.579E-04
DAV:   8    -0.132991312770E+04   -0.65539E-06   -0.10311E-07  4832   0.314E-04    0.392E-04
DAV:   9    -0.132991312832E+04   -0.62166E-06   -0.22353E-08  3776   0.162E-04    0.228E-04
DAV:  10    -0.132991312923E+04   -0.91534E-06   -0.47022E-08  4160   0.224E-04    0.143E-04
DAV:  11    -0.132991312963E+04   -0.39367E-06   -0.16551E-08  3776   0.146E-04    0.951E-05
DAV:  12    -0.132991312993E+04   -0.30731E-06   -0.77852E-09  3424   0.936E-05    0.624E-05
DAV:  13    -0.132991313016E+04   -0.22241E-06   -0.61045E-09  3424   0.701E-05    0.381E-05
DAV:  14    -0.132991313030E+04   -0.14158E-06   -0.42847E-09  3392   0.586E-05    0.227E-05
DAV:  15    -0.132991313037E+04   -0.72439E-07   -0.20594E-09  3200   0.499E-05    0.176E-05
DAV:  16    -0.132991313042E+04   -0.47134E-07   -0.14004E-09  3136   0.501E-05    0.118E-05
DAV:  17    -0.132991313044E+04   -0.20169E-07   -0.83246E-10  3200   0.462E-05    0.118E-05
DAV:  18    -0.132991313045E+04   -0.77853E-08    0.28037E-10  3136   0.252E-05
  36 F= -.13489445E+04 E0= -.13489445E+04  d E =0.270236E-03  mag=    -0.0000
       N       E                     dE             d eps       ncg     rms          rms(c)
DAV:   1    -0.132991338720E+04   -0.25676E-03   -0.49593E-01  5056   0.487E-01    0.140E-01
DAV:   2    -0.132991333855E+04    0.48650E-04   -0.29405E-03  5568   0.397E-02    0.901E-02
DAV:   3    -0.132991320808E+04    0.13047E-03   -0.74326E-04  5568   0.190E-02    0.136E-02
DAV:   4    -0.132991322293E+04   -0.14844E-04   -0.16392E-04  5760   0.526E-03    0.906E-03
DAV:   5    -0.132991322257E+04    0.35112E-06   -0.96668E-06  6080   0.221E-03    0.479E-03
DAV:   6    -0.132991322296E+04   -0.38912E-06   -0.15776E-06  6064   0.132E-03    0.183E-03
DAV:   7    -0.132991322331E+04   -0.34318E-06   -0.37110E-07  5632   0.687E-04    0.583E-04
DAV:   8    -0.132991322372E+04   -0.40999E-06   -0.93556E-08  5072   0.340E-04    0.407E-04
DAV:   9    -0.132991322411E+04   -0.39674E-06   -0.17995E-08  3728   0.177E-04    0.227E-04
DAV:  10    -0.132991322465E+04   -0.53510E-06   -0.29867E-08  4096   0.199E-04    0.150E-04
DAV:  11    -0.132991322494E+04   -0.29604E-06   -0.11189E-08  3616   0.133E-04    0.104E-04
DAV:  12    -0.132991322520E+04   -0.25744E-06   -0.74960E-09  3456   0.102E-04    0.644E-05
DAV:  13    -0.132991322538E+04   -0.17788E-06   -0.45745E-09  3392   0.724E-05    0.471E-05
DAV:  14    -0.132991322549E+04   -0.10741E-06   -0.29344E-09  3232   0.611E-05    0.274E-05
DAV:  15    -0.132991322556E+04   -0.71217E-07   -0.20238E-09  3200   0.550E-05    0.237E-05
DAV:  16    -0.132991322560E+04   -0.42768E-07   -0.86874E-10  3136   0.419E-05    0.166E-05
DAV:  17    -0.132991322563E+04   -0.26470E-07   -0.41200E-10  3168   0.397E-05    0.119E-05
DAV:  18    -0.132991322564E+04   -0.10317E-07    0.26587E-10  3072   0.282E-05    0.134E-05
DAV:  19    -0.132991322564E+04   -0.46421E-08    0.60213E-10  2944   0.177E-05
  37 F= -.13489443E+04 E0= -.13489443E+04  d E =0.135371E-03  mag=     0.0000
       N       E                     dE             d eps       ncg     rms          rms(c)
DAV:   1    -0.132991267265E+04    0.55299E-03   -0.49950E-01  5056   0.522E-01    0.137E-01
DAV:   2    -0.132991277285E+04   -0.10020E-03   -0.41708E-03  5632   0.455E-02    0.939E-02
DAV:   3    -0.132991262711E+04    0.14575E-03   -0.63561E-04  6176   0.212E-02    0.232E-02
DAV:   4    -0.132991264415E+04   -0.17043E-04   -0.19685E-04  6176   0.694E-03    0.967E-03
DAV:   5    -0.132991264336E+04    0.78545E-06   -0.11826E-05  5792   0.284E-03    0.550E-03
DAV:   6    -0.132991264410E+04   -0.73978E-06   -0.18240E-06  6336   0.150E-03    0.232E-03
DAV:   7    -0.132991264489E+04   -0.78666E-06   -0.60022E-07  5536   0.983E-04    0.784E-04
DAV:   8    -0.132991264604E+04   -0.11475E-05   -0.29112E-07  5152   0.616E-04    0.593E-04
DAV:   9    -0.132991264683E+04   -0.79443E-06   -0.52231E-08  4736   0.289E-04    0.362E-04
DAV:  10    -0.132991264820E+04   -0.13668E-05   -0.71295E-08  4384   0.333E-04    0.210E-04
DAV:  11    -0.132991264883E+04   -0.63219E-06   -0.35449E-08  4048   0.229E-04    0.167E-04
DAV:  12    -0.132991264941E+04   -0.57429E-06   -0.22264E-08  3984   0.190E-04    0.988E-05
DAV:  13    -0.132991264975E+04   -0.34815E-06   -0.91418E-09  3456   0.101E-04    0.799E-05
DAV:  14    -0.132991264995E+04   -0.19591E-06   -0.41105E-09  3360   0.691E-05    0.385E-05
DAV:  15    -0.132991265009E+04   -0.14076E-06   -0.29310E-09  3232   0.681E-05    0.341E-05
DAV:  16    -0.132991265019E+04   -0.96145E-07   -0.22179E-09  3200   0.605E-05    0.345E-05
DAV:  17    -0.132991265022E+04   -0.30268E-07   -0.37253E-10  3104   0.470E-05    0.166E-05
DAV:  18    -0.132991265025E+04   -0.30181E-07   -0.61447E-10  3136   0.425E-05    0.328E-05
DAV:  19    -0.132991265025E+04   -0.41764E-08    0.45782E-10  3072   0.257E-05
  38 F= -.13489440E+04 E0= -.13489440E+04  d E =0.351600E-03  mag=    -0.0000
       N       E                     dE             d eps       ncg     rms          rms(c)
DAV:   1    -0.132991335197E+04   -0.70172E-03   -0.49205E-01  4992   0.527E-01    0.142E-01
DAV:   2    -0.132991336237E+04   -0.10405E-04   -0.34942E-03  5376   0.418E-02    0.891E-02
DAV:   3    -0.132991325183E+04    0.11054E-03   -0.78390E-04  5696   0.194E-02    0.184E-02
DAV:   4    -0.132991326181E+04   -0.99733E-05   -0.14846E-04  5984   0.576E-03    0.107E-02
DAV:   5    -0.132991326120E+04    0.60229E-06   -0.13419E-05  6256   0.237E-03    0.485E-03
DAV:   6    -0.132991326197E+04   -0.76400E-06   -0.14433E-06  5888   0.114E-03    0.181E-03
DAV:   7    -0.132991326290E+04   -0.93241E-06   -0.40852E-07  5440   0.561E-04    0.559E-04
DAV:   8    -0.132991326368E+04   -0.78259E-06   -0.93373E-08  4336   0.274E-04    0.382E-04
DAV:   9    -0.132991326445E+04   -0.76287E-06   -0.25104E-08  3840   0.177E-04    0.223E-04
DAV:  10    -0.132991326550E+04   -0.10498E-05   -0.51595E-08  4224   0.208E-04    0.144E-04
DAV:  11    -0.132991326596E+04   -0.46831E-06   -0.15096E-08  3744   0.112E-04    0.108E-04
DAV:  12    -0.132991326638E+04   -0.42051E-06   -0.11938E-08  3584   0.877E-05    0.669E-05
DAV:  13    -0.132991326661E+04   -0.22413E-06   -0.48356E-09  3392   0.607E-05    0.474E-05
DAV:  14    -0.132991326679E+04   -0.17880E-06   -0.49307E-09  3424   0.621E-05    0.264E-05
DAV:  15    -0.132991326687E+04   -0.83266E-07   -0.18916E-09  3264   0.537E-05    0.241E-05
DAV:  16    -0.132991326691E+04   -0.43889E-07   -0.78336E-10  3072   0.460E-05    0.132E-05
DAV:  17    -0.132991326694E+04   -0.27780E-07   -0.58565E-10  3136   0.423E-05    0.201E-05
DAV:  18    -0.132991326695E+04   -0.99099E-08    0.23655E-10  3072   0.268E-05
  39 F= -.13489446E+04 E0= -.13489446E+04  d E =-.681257E-03  mag=    -0.0000
       N       E                     dE             d eps       ncg     rms          rms(c)
DAV:   1    -0.132991362812E+04   -0.36118E-03   -0.49138E-01  4992   0.517E-01    0.141E-01
DAV:   2    -0.132991362810E+04    0.16938E-07   -0.34649E-03  5664   0.441E-02    0.888E-02
DAV:   3    -0.132991351734E+04    0.11076E-03   -0.71052E-04  5760   0.198E-02    0.213E-02
DAV:   4    -0.132991352650E+04   -0.91607E-05   -0.12144E-04  6144   0.594E-03    0.959E-03
DAV:   5    -0.132991352677E+04   -0.27390E-06   -0.10629E-05  5952   0.241E-03    0.410E-03
DAV:   6    -0.132991352723E+04   -0.45531E-06   -0.14654E-06  6112   0.130E-03    0.173E-03
DAV:   7    -0.132991352763E+04   -0.39914E-06   -0.31853E-07  5568   0.579E-04    0.489E-04
DAV:   8    -0.132991352792E+04   -0.28951E-06   -0.58475E-08  4752   0.245E-04    0.303E-04
DAV:   9    -0.132991352819E+04   -0.27020E-06   -0.10152E-08  3712   0.130E-04    0.174E-04
DAV:  10    -0.132991352853E+04   -0.34260E-06   -0.16765E-08  3680   0.135E-04    0.937E-05
DAV:  11    -0.132991352869E+04   -0.15607E-06   -0.46555E-09  3392   0.806E-05    0.743E-05
DAV:  12    -0.132991352882E+04   -0.13356E-06   -0.30142E-09  3328   0.608E-05    0.439E-05
DAV:  13    -0.132991352897E+04   -0.14747E-06   -0.44000E-09  3360   0.629E-05    0.334E-05
DAV:  14    -0.132991352903E+04   -0.61860E-07   -0.18920E-09  3264   0.591E-05    0.273E-05
DAV:  15    -0.132991352907E+04   -0.46304E-07   -0.10926E-09  3200   0.484E-05    0.138E-05
DAV:  16    -0.132991352910E+04   -0.28784E-07   -0.28941E-10  3136   0.358E-05    0.156E-05
DAV:  17    -0.132991352911E+04   -0.11030E-07    0.18633E-10  3072   0.275E-05    0.878E-06
DAV:  18    -0.132991352912E+04   -0.62864E-08    0.41060E-10  3072   0.228E-05
  40 F= -.13489446E+04 E0= -.13489446E+04  d E =0.367890E-04  mag=    -0.0000
       N       E                     dE             d eps       ncg     rms          rms(c)
DAV:   1    -0.132991400087E+04   -0.47176E-03   -0.48714E-01  5120   0.516E-01    0.131E-01
DAV:   2    -0.132991422051E+04   -0.21964E-03   -0.51867E-03  5600   0.475E-02    0.890E-02
DAV:   3    -0.132991409550E+04    0.12501E-03   -0.61387E-04  5952   0.208E-02    0.298E-02
DAV:   4    -0.132991410557E+04   -0.10065E-04   -0.16380E-04  6144   0.809E-03    0.103E-02
DAV:   5    -0.132991410527E+04    0.30219E-06   -0.13284E-05  5728   0.258E-03    0.477E-03
DAV:   6    -0.132991410579E+04   -0.52527E-06   -0.16643E-06  6432   0.114E-03    0.183E-03
DAV:   7    -0.132991410637E+04   -0.57476E-06   -0.49353E-07  5408   0.833E-04    0.721E-04
DAV:   8    -0.132991410684E+04   -0.47631E-06   -0.12024E-07  5088   0.363E-04    0.369E-04
DAV:   9    -0.132991410727E+04   -0.43081E-06   -0.34455E-08  4640   0.221E-04    0.250E-04
DAV:  10    -0.132991410777E+04   -0.49887E-06   -0.15743E-08  3552   0.167E-04    0.148E-04
DAV:  11    -0.132991410833E+04   -0.56278E-06   -0.29750E-08  4000   0.205E-04    0.106E-04
DAV:  12    -0.132991410864E+04   -0.30261E-06   -0.11487E-08  3616   0.110E-04    0.777E-05
DAV:  13    -0.132991410881E+04   -0.17670E-06   -0.33958E-09  3328   0.696E-05    0.458E-05
DAV:  14    -0.132991410898E+04   -0.16375E-06   -0.40430E-09  3424   0.672E-05    0.396E-05
DAV:  15    -0.132991410905E+04   -0.71377E-07   -0.11107E-09  3200   0.543E-05    0.310E-05
DAV:  16    -0.132991410911E+04   -0.64640E-07   -0.10240E-09  3136   0.487E-05    0.165E-05
DAV:  17    -0.132991410914E+04   -0.27896E-07   -0.37320E-10  3072   0.407E-05    0.218E-05
DAV:  18    -0.132991410915E+04   -0.10827E-07    0.22007E-10  3104   0.289E-05    0.171E-05
DAV:  19    -0.132991410916E+04   -0.55443E-08    0.52155E-10  3072   0.237E-05
  41 F= -.13489454E+04 E0= -.13489454E+04  d E =-.766890E-03  mag=     0.0000
       N       E                     dE             d eps       ncg     rms          rms(c)
DAV:   1    -0.132991365866E+04    0.45049E-03   -0.48871E-01  5120   0.443E-01    0.137E-01
DAV:   2    -0.132991372117E+04   -0.62508E-04   -0.45479E-03  5504   0.423E-02    0.809E-02
DAV:   3    -0.132991361219E+04    0.10898E-03   -0.77446E-04  5600   0.208E-02    0.247E-02
DAV:   4    -0.132991361757E+04   -0.53778E-05   -0.13477E-04  6048   0.716E-03    0.110E-02
DAV:   5    -0.132991361627E+04    0.12941E-05   -0.15759E-05  6208   0.325E-03    0.448E-03
DAV:   6    -0.132991361676E+04   -0.48525E-06   -0.13332E-06  6144   0.145E-03    0.210E-03
DAV:   7    -0.132991361763E+04   -0.87182E-06   -0.37051E-07  5632   0.669E-04    0.848E-04
DAV:   8    -0.132991361860E+04   -0.97393E-06   -0.13181E-07  5392   0.414E-04    0.424E-04
DAV:   9    -0.132991361944E+04   -0.84018E-06   -0.31668E-08  4064   0.188E-04    0.300E-04
DAV:  10    -0.132991362096E+04   -0.15172E-05   -0.96064E-08  4224   0.252E-04    0.171E-04
DAV:  11    -0.132991362176E+04   -0.80315E-06   -0.48830E-08  4128   0.187E-04    0.126E-04
DAV:  12    -0.132991362234E+04   -0.57404E-06   -0.23469E-08  3840   0.127E-04    0.923E-05
DAV:  13    -0.132991362275E+04   -0.41319E-06   -0.14542E-08  3616   0.964E-05    0.569E-05
DAV:  14    -0.132991362296E+04   -0.21359E-06   -0.58726E-09  3264   0.686E-05    0.353E-05
DAV:  15    -0.132991362309E+04   -0.12368E-06   -0.25735E-09  3104   0.504E-05    0.241E-05
DAV:  16    -0.132991362321E+04   -0.11665E-06   -0.22690E-09  3136   0.474E-05    0.166E-05
DAV:  17    -0.132991362326E+04   -0.56127E-07   -0.74286E-10  3072   0.439E-05    0.116E-05
DAV:  18    -0.132991362328E+04   -0.20533E-07   -0.43993E-12  3072   0.340E-05    0.834E-06
DAV:  19    -0.132991362329E+04   -0.12122E-07    0.41764E-10  3072   0.233E-05    0.586E-06
DAV:  20    -0.132991362330E+04   -0.75670E-08    0.65723E-10  3072   0.150E-05
  42 F= -.13489449E+04 E0= -.13489449E+04  d E =0.459386E-03  mag=     0.0000
       N       E                     dE             d eps       ncg     rms          rms(c)
DAV:   1    -0.132991425614E+04   -0.63284E-03   -0.49308E-01  5120   0.453E-01    0.141E-01
DAV:   2    -0.132991428507E+04   -0.28935E-04   -0.46438E-03  5600   0.434E-02    0.871E-02
DAV:   3    -0.132991413784E+04    0.14723E-03   -0.88799E-04  5888   0.236E-02    0.240E-02
DAV:   4    -0.132991414886E+04   -0.11022E-04   -0.16744E-04  6080   0.890E-03    0.122E-02
DAV:   5    -0.132991414856E+04    0.30395E-06   -0.14922E-05  5600   0.335E-03    0.517E-03
DAV:   6    -0.132991414890E+04   -0.34405E-06   -0.19411E-06  6336   0.169E-03    0.233E-03
DAV:   7    -0.132991414939E+04   -0.48234E-06   -0.45741E-07  6336   0.805E-04    0.989E-04
DAV:   8    -0.132991414993E+04   -0.54629E-06   -0.11936E-07  5312   0.456E-04    0.475E-04
DAV:   9    -0.132991415035E+04   -0.41825E-06   -0.35221E-08  4320   0.264E-04    0.283E-04
DAV:  10    -0.132991415084E+04   -0.48379E-06   -0.14129E-08  3456   0.186E-04    0.161E-04
DAV:  11    -0.132991415131E+04   -0.47569E-06   -0.17627E-08  3744   0.180E-04    0.942E-05
DAV:  12    -0.132991415175E+04   -0.43656E-06   -0.20770E-08  3744   0.167E-04    0.734E-05
DAV:  13    -0.132991415192E+04   -0.17288E-06   -0.56205E-09  3296   0.916E-05    0.533E-05
DAV:  14    -0.132991415204E+04   -0.11563E-06   -0.34908E-09  3200   0.656E-05    0.313E-05
DAV:  15    -0.132991415210E+04   -0.67506E-07   -0.18665E-09  3136   0.562E-05    0.230E-05
DAV:  16    -0.132991415215E+04   -0.46435E-07   -0.12851E-09  3136   0.550E-05    0.161E-05
DAV:  17    -0.132991415218E+04   -0.34561E-07   -0.84901E-10  3136   0.478E-05    0.162E-05
DAV:  18    -0.132991415219E+04   -0.92114E-08    0.16697E-10  3136   0.321E-05
  43 F= -.13489454E+04 E0= -.13489454E+04  d E =-.436729E-03  mag=     0.0000
