       N       E                     dE             d eps       ncg     rms          rms(c)
DAV:   1    -0.137723022244E+04   -0.13772E+04   -0.13401E+00  6272   0.982E-01    0.947E-01
DAV:   2    -0.137897411478E+04   -0.17439E+01   -0.11935E+00  6080   0.955E-01    0.412E-01
DAV:   3    -0.137898386340E+04   -0.97486E-02   -0.43689E-02  6720   0.231E-01    0.275E-01
DAV:   4    -0.137898391359E+04   -0.50197E-04   -0.21352E-03  5696   0.570E-02    0.223E-01
DAV:   5    -0.137898391928E+04   -0.56920E-05   -0.19065E-04  6592   0.178E-02    0.188E-01
DAV:   6    -0.137898393193E+04   -0.12649E-04   -0.24124E-05  6688   0.729E-03    0.160E-01
DAV:   7    -0.137898393800E+04   -0.60710E-05   -0.23463E-05  6656   0.809E-03    0.128E-01
DAV:   8    -0.137898394273E+04   -0.47288E-05   -0.17853E-05  6080   0.661E-03    0.105E-01
DAV:   9    -0.137898394686E+04   -0.41263E-05   -0.50701E-06  4224   0.356E-03    0.887E-02
DAV:  10    -0.137898395179E+04   -0.49336E-05   -0.24453E-05  6528   0.789E-03    0.515E-02
DAV:  11    -0.137898395542E+04   -0.36228E-05   -0.27579E-05  6752   0.837E-03    0.179E-02
DAV:  12    -0.137898395625E+04   -0.83246E-06   -0.29496E-06  3392   0.268E-03
   1 F= -.13983705E+04 E0= -.13983705E+04  d E =-.283715E-11  mag=    -0.0000
