 vasp.5.4.4.18Apr17-6-g9f103f2a35 (build Oct 18 2017 12:32:39) complex          
  
 executed on             LinuxIFC date 2021.10.30  22:23:07
 running on   48 total cores
 distrk:  each k-point on   48 cores,    1 groups
 distr:  one band on NCORES_PER_BAND=   6 cores,    8 groups


--------------------------------------------------------------------------------------------------------


 INCAR:
 POTCAR:    PAW_PBE Zr_sv 04Jan2005               
 POTCAR:    PAW_PBE O 08Apr2002                   
 POTCAR:    PAW_PBE H 15Jun2001                   
 POTCAR:    PAW_PBE C 08Apr2002                   
 POTCAR:    PAW_PBE Zr_sv 04Jan2005               
   VRHFIN =Zr: 4s4p5s4d                                                         
   LEXCH  = PE                                                                  
   EATOM  =  1284.2219 eV,   94.3876 Ry                                         
                                                                                
   TITEL  = PAW_PBE Zr_sv 04Jan2005                                             
   LULTRA =        F    use ultrasoft PP ?                                      
   IUNSCR =        1    unscreen: 0-lin 1-nonlin 2-no                           
   RPACOR =    2.200    partial core radius                                     
   POMASS =   91.224; ZVAL   =   12.000    mass and valenz                      
   RCORE  =    2.500    outmost cutoff radius                                   
   RWIGS  =    3.070; RWIGS  =    1.625    wigner-seitz radius (au A)           
   ENMAX  =  229.898; ENMIN  =  172.424 eV                                      
   ICORE  =        3    local potential                                         
   LCOR   =        T    correct aug charges                                     
   LPAW   =        T    paw PP                                                  
   EAUG   =  461.257                                                            
   DEXC   =    0.000                                                            
   RMAX   =    2.561    core radius for proj-oper                               
   RAUG   =    1.300    factor for augmentation sphere                          
   RDEP   =    2.597    radius for radial grids                                 
   RDEPT  =    2.007    core radius for aug-charge                              
                                                                                
   Atomic configuration                                                         
   11 entries                                                                   
     n  l   j            E        occ.                                          
     1  0  0.50    -17820.0161   2.0000                                         
     2  0  0.50     -2467.0882   2.0000                                         
     2  1  1.50     -2199.6095   6.0000                                         
     3  0  0.50      -402.4863   2.0000                                         
     3  1  1.50      -315.3675   6.0000                                         
     3  2  2.50      -172.4472  10.0000                                         
     4  0  0.50       -52.4146   2.0000                                         
     5  0  0.50        -3.8421   1.0000                                         
     4  1  1.50       -30.5054   6.0000                                         
     4  2  2.50        -2.3341   3.0000                                         
     4  3  2.50        -1.3606   0.0000                                         
   Description                                                                  
     l       E           TYP  RCUT    TYP  RCUT                                 
     0    -52.4145962     23  2.200                                             
     0     -3.8421270     23  2.500                                             
     1    -30.5053914     23  2.200                                             
     1     20.4087390     23  2.200                                             
     2     -2.3340816     23  2.500                                             
     2     -0.6120942     23  2.500                                             
     3     -4.0817478     23  2.500                                             
  local pseudopotential read in
  partial core-charges read in
  partial kinetic energy density read in
  atomic valenz-charges read in
  non local Contribution for L=           0  read in
    real space projection operators read in
  non local Contribution for L=           0  read in
    real space projection operators read in
  non local Contribution for L=           1  read in
    real space projection operators read in
  non local Contribution for L=           1  read in
    real space projection operators read in
  non local Contribution for L=           2  read in
    real space projection operators read in
  non local Contribution for L=           2  read in
    real space projection operators read in
    PAW grid and wavefunctions read in
 
   number of l-projection  operators is LMAX  =           6
   number of lm-projection operators is LMMAX =          18
 
 POTCAR:    PAW_PBE O 08Apr2002                   
   VRHFIN =O: s2p4                                                              
   LEXCH  = PE                                                                  
   EATOM  =   432.3788 eV,   31.7789 Ry                                         
                                                                                
   TITEL  = PAW_PBE O 08Apr2002                                                 
   LULTRA =        F    use ultrasoft PP ?                                      
   IUNSCR =        1    unscreen: 0-lin 1-nonlin 2-no                           
   RPACOR =    1.200    partial core radius                                     
   POMASS =   16.000; ZVAL   =    6.000    mass and valenz                      
   RCORE  =    1.520    outmost cutoff radius                                   
   RWIGS  =    1.550; RWIGS  =    0.820    wigner-seitz radius (au A)           
   ENMAX  =  400.000; ENMIN  =  300.000 eV                                      
   ICORE  =        2    local potential                                         
   LCOR   =        T    correct aug charges                                     
   LPAW   =        T    paw PP                                                  
   EAUG   =  605.392                                                            
   DEXC   =    0.000                                                            
   RMAX   =    1.553    core radius for proj-oper                               
   RAUG   =    1.300    factor for augmentation sphere                          
   RDEP   =    1.550    radius for radial grids                                 
   RDEPT  =    1.329    core radius for aug-charge                              
                                                                                
   Atomic configuration                                                         
    4 entries                                                                   
     n  l   j            E        occ.                                          
     1  0  0.50      -514.6923   2.0000                                         
     2  0  0.50       -23.9615   2.0000                                         
     2  1  0.50        -9.0305   4.0000                                         
     3  2  1.50        -9.5241   0.0000                                         
   Description                                                                  
     l       E           TYP  RCUT    TYP  RCUT                                 
     0    -23.9615318     23  1.200                                             
     0     -9.5240782     23  1.200                                             
     1     -9.0304911     23  1.520                                             
     1      8.1634956     23  1.520                                             
     2     -9.5240782      7  1.500                                             
  local pseudopotential read in
  partial core-charges read in
  partial kinetic energy density read in
  kinetic energy density of atom read in
  atomic valenz-charges read in
  non local Contribution for L=           0  read in
    real space projection operators read in
  non local Contribution for L=           0  read in
    real space projection operators read in
  non local Contribution for L=           1  read in
    real space projection operators read in
  non local Contribution for L=           1  read in
    real space projection operators read in
    PAW grid and wavefunctions read in
 
   number of l-projection  operators is LMAX  =           4
   number of lm-projection operators is LMMAX =           8
 
 POTCAR:    PAW_PBE H 15Jun2001                   
   VRHFIN =H: ultrasoft test                                                    
   LEXCH  = PE                                                                  
   EATOM  =    12.4884 eV,    0.9179 Ry                                         
                                                                                
   TITEL  = PAW_PBE H 15Jun2001                                                 
   LULTRA =        F    use ultrasoft PP ?                                      
   IUNSCR =        0    unscreen: 0-lin 1-nonlin 2-no                           
   RPACOR =    0.000    partial core radius                                     
   POMASS =    1.000; ZVAL   =    1.000    mass and valenz                      
   RCORE  =    1.100    outmost cutoff radius                                   
   RWIGS  =    0.700; RWIGS  =    0.370    wigner-seitz radius (au A)           
   ENMAX  =  250.000; ENMIN  =  200.000 eV                                      
   RCLOC  =    0.701    cutoff for local pot                                    
   LCOR   =        T    correct aug charges                                     
   LPAW   =        T    paw PP                                                  
   EAUG   =  400.000                                                            
   RMAX   =    1.123    core radius for proj-oper                               
   RAUG   =    1.200    factor for augmentation sphere                          
   RDEP   =    1.112    radius for radial grids                                 
   RDEPT  =    0.926    core radius for aug-charge                              
                                                                                
   Atomic configuration                                                         
    2 entries                                                                   
     n  l   j            E        occ.                                          
     1  0  0.50        -6.4927   1.0000                                         
     2  1  0.50        -3.4015   0.0000                                         
   Description                                                                  
     l       E           TYP  RCUT    TYP  RCUT                                 
     0     -6.4927494     23  1.100                                             
     0      6.8029130     23  1.100                                             
     1     -4.0817478     23  1.100                                             
  local pseudopotential read in
  atomic valenz-charges read in
  non local Contribution for L=           0  read in
    real space projection operators read in
  non local Contribution for L=           0  read in
    real space projection operators read in
  non local Contribution for L=           1  read in
    real space projection operators read in
    PAW grid and wavefunctions read in
 
   number of l-projection  operators is LMAX  =           3
   number of lm-projection operators is LMMAX =           5
 
 POTCAR:    PAW_PBE C 08Apr2002                   
   VRHFIN =C: s2p2                                                              
   LEXCH  = PE                                                                  
   EATOM  =   147.1560 eV,   10.8157 Ry                                         
                                                                                
   TITEL  = PAW_PBE C 08Apr2002                                                 
   LULTRA =        F    use ultrasoft PP ?                                      
   IUNSCR =        1    unscreen: 0-lin 1-nonlin 2-no                           
   RPACOR =    1.200    partial core radius                                     
   POMASS =   12.011; ZVAL   =    4.000    mass and valenz                      
   RCORE  =    1.500    outmost cutoff radius                                   
   RWIGS  =    1.630; RWIGS  =    0.863    wigner-seitz radius (au A)           
   ENMAX  =  400.000; ENMIN  =  300.000 eV                                      
   ICORE  =        2    local potential                                         
   LCOR   =        T    correct aug charges                                     
   LPAW   =        T    paw PP                                                  
   EAUG   =  644.873                                                            
   DEXC   =    0.000                                                            
   RMAX   =    1.529    core radius for proj-oper                               
   RAUG   =    1.300    factor for augmentation sphere                          
   RDEP   =    1.501    radius for radial grids                                 
   RDEPT  =    1.300    core radius for aug-charge                              
                                                                                
   Atomic configuration                                                         
    4 entries                                                                   
     n  l   j            E        occ.                                          
     1  0  0.50      -273.3789   2.0000                                         
     2  0  0.50       -13.7508   2.0000                                         
     2  1  0.50        -5.2854   2.0000                                         
     3  2  1.50        -5.4423   0.0000                                         
   Description                                                                  
     l       E           TYP  RCUT    TYP  RCUT                                 
     0    -13.7508458     23  1.200                                             
     0     -8.2022199     23  1.200                                             
     1     -5.2854383     23  1.500                                             
     1     34.0145650     23  1.500                                             
     2     -5.4423304      7  1.500                                             
  local pseudopotential read in
  partial core-charges read in
  partial kinetic energy density read in
  atomic valenz-charges read in
  non local Contribution for L=           0  read in
    real space projection operators read in
  non local Contribution for L=           0  read in
    real space projection operators read in
  non local Contribution for L=           1  read in
    real space projection operators read in
  non local Contribution for L=           1  read in
    real space projection operators read in
    PAW grid and wavefunctions read in
 
   number of l-projection  operators is LMAX  =           4
   number of lm-projection operators is LMMAX =           8
 
 Optimization of the real space projectors (new method)

 maximal supplied QI-value         = 15.12
 optimisation between [QCUT,QGAM] = [ 11.34, 22.83] = [ 36.00,145.93] Ry 
 Optimized for a Real-space Cutoff    1.47 Angstroem

   l    n(q)    QCUT    max X(q) W(low)/X(q) W(high)/X(q)  e(spline) 
   0     10    11.338    12.107    0.38E-04    0.13E-04    0.27E-07
   0     10    11.338     9.948    0.69E-04    0.30E-04    0.38E-07
   1     10    11.338     3.563    0.26E-04    0.18E-04    0.40E-07
   1     10    11.338     4.524    0.25E-03    0.39E-04    0.44E-06
   2      9    11.338    87.261    0.26E-03    0.91E-05    0.26E-06
   2      9    11.338    70.950    0.25E-03    0.91E-05    0.25E-06
 Optimization of the real space projectors (new method)

 maximal supplied QI-value         = 24.76
 optimisation between [QCUT,QGAM] = [ 11.39, 22.77] = [ 36.31,145.25] Ry 
 Optimized for a Real-space Cutoff    1.00 Angstroem

   l    n(q)    QCUT    max X(q) W(low)/X(q) W(high)/X(q)  e(spline) 
   0      7    11.387    20.381    0.39E-03    0.13E-02    0.15E-06
   0      7    11.387    15.268    0.42E-03    0.14E-02    0.17E-06
   1      6    11.387     5.964    0.41E-03    0.11E-02    0.17E-06
   1      6    11.387     5.382    0.39E-03    0.87E-03    0.15E-06
 Optimization of the real space projectors (new method)

 maximal supplied QI-value         = 34.20
 optimisation between [QCUT,QGAM] = [ 11.29, 22.57] = [ 35.68,142.71] Ry 
 Optimized for a Real-space Cutoff    1.16 Angstroem

   l    n(q)    QCUT    max X(q) W(low)/X(q) W(high)/X(q)  e(spline) 
   0      8    11.287    19.460    0.40E-03    0.73E-03    0.16E-06
   0      8    11.287    12.209    0.38E-03    0.70E-03    0.15E-06
   1      7    11.287     4.655    0.22E-03    0.25E-04    0.22E-06
 Optimization of the real space projectors (new method)

 maximal supplied QI-value         = 25.13
 optimisation between [QCUT,QGAM] = [ 11.31, 22.87] = [ 35.82,146.48] Ry 
 Optimized for a Real-space Cutoff    1.00 Angstroem

   l    n(q)    QCUT    max X(q) W(low)/X(q) W(high)/X(q)  e(spline) 
   0      7    11.310   115.676    0.43E-03    0.13E-02    0.19E-06
   0      7    11.310    87.132    0.43E-03    0.13E-02    0.18E-06
   1      6    11.310     4.429    0.42E-03    0.74E-03    0.11E-06
   1      6    11.310     2.733    0.34E-03    0.55E-03    0.92E-07
  PAW_PBE Zr_sv 04Jan2005               :
 energy of atom  1       EATOM=-1284.2219
 kinetic energy error for atom=    0.0049 (will be added to EATOM!!)
  PAW_PBE O 08Apr2002                   :
 energy of atom  2       EATOM= -432.3788
 kinetic energy error for atom=    0.0224 (will be added to EATOM!!)
  PAW_PBE H 15Jun2001                   :
 energy of atom  3       EATOM=  -12.4884
 kinetic energy error for atom=    0.0020 (will be added to EATOM!!)
  PAW_PBE C 08Apr2002                   :
 energy of atom  4       EATOM= -147.1560
 kinetic energy error for atom=    0.0076 (will be added to EATOM!!)
 
 
 POSCAR: Zr   O    H    C                        
  positions in direct lattice
  velocities in cartesian coordinates
  No initial velocities read in
 exchange correlation table for  LEXCH =        8
   RHO(1)=    0.500       N(1)  =     2000
   RHO(2)=  100.500       N(2)  =     4000

 VTST: version 3.1, (03/28/14)

 CHAIN: initializing optimizer
 
 OPT: Using Conjugate-Gradient optimizer
 OPT: CG, Init
 OPT: CG, FDSTEP      0.005000
 OPT: CG, MAXMOVE      0.200000
 
 CHAIN: Read ICHAIN            2
 
 POSCAR: Zr   O    H    C                        
  positions in direct lattice
  velocities in cartesian coordinates
  No initial velocities read in
 CHAIN: Running the Dimer method

 Dimer: -----------------
 Dimer: Input Parameters
 Dimer:   Seed      0
 Dimer: RotMax      4
 Dimer:     dR      0.005000
 Dimer:  FNMax      1.000000
 Dimer:  FNMin      0.010000
 Dimer: -----------------
 


--------------------------------------------------------------------------------------------------------


 ion  position               nearest neighbor table
   1  0.088  0.321  0.038-  78 2.10  62 2.10  50 2.18  74 2.19  61 2.26  54 2.30  16 3.37   6 3.50
                            12 3.52  13 3.65
   2  0.338  0.821  0.038-  79 2.10  63 2.10  51 2.18  75 2.19  58 2.26  55 2.30  13 3.37   7 3.50
                             9 3.52  14 3.65
   3  0.588  0.321  0.038-  80 2.10  64 2.10  52 2.18  76 2.19  59 2.26  56 2.30  14 3.37   8 3.50
                            10 3.52  15 3.65
   4  0.838  0.821  0.038-  81 2.10  65 2.10  53 2.18  77 2.19  60 2.26  57 2.30  15 3.37   5 3.50
                            11 3.52  16 3.65
   5  0.070  0.834  0.049-  82 2.07  66 2.10  65 2.18  58 2.19  57 2.22  70 2.30  12 3.37  17 3.47
                             4 3.50  16 3.52   9 3.65
   6  0.320  0.334  0.049-  83 2.06  67 2.10  62 2.18  59 2.19  54 2.22  71 2.30   9 3.37  18 3.48
                             1 3.50  13 3.52  10 3.65
   7  0.570  0.834  0.049-  84 2.06  68 2.10  63 2.18  60 2.19  55 2.22  72 2.30  10 3.37  19 3.49
                             2 3.50  14 3.52  11 3.65
   8  0.820  0.334  0.049-  85 2.08  69 2.10  64 2.18  61 2.19  56 2.22  73 2.30  11 3.37   3 3.50
                            20 3.51  15 3.52  12 3.65
   9  0.238  0.068  0.057-  62 2.10  86 2.16  67 2.18  70 2.19  75 2.22  58 2.30   6 3.37  17 3.48
                            14 3.50  22 3.52   2 3.52   5 3.65
  10  0.488  0.568  0.057-  63 2.10  87 2.18  68 2.18  71 2.19  76 2.22  59 2.30   7 3.37  18 3.48
                            15 3.50   3 3.52  23 3.52   6 3.65
  11  0.738  0.068  0.057-  64 2.10  69 2.18  88 2.18  72 2.19  77 2.22  60 2.30   8 3.37  19 3.47
                            16 3.50   4 3.52  24 3.52   7 3.65
  12  0.988  0.568  0.057-  65 2.10  66 2.18  89 2.18  73 2.19  74 2.22  61 2.30   5 3.37  13 3.50
                             1 3.52  21 3.53  20 3.53   8 3.65
  13  0.220  0.581  0.068-  51 2.10  66 2.10  79 2.18  54 2.19  71 2.26  90 2.26  74 2.30   2 3.37
                            21 3.49  26 3.50  12 3.50  18 3.50   6 3.52   1 3.65
  14  0.470  0.081  0.068-  52 2.10  67 2.10  80 2.18  55 2.19  72 2.26  91 2.27  75 2.30   3 3.37
                            27 3.49  22 3.49   9 3.50  19 3.51   7 3.52   2 3.65
  15  0.720  0.581  0.068-  53 2.10  68 2.10  81 2.18  56 2.19  73 2.26  92 2.26  76 2.30   4 3.37
                            23 3.49  28 3.50  10 3.50   8 3.52  20 3.53   3 3.65
  16  0.970  0.081  0.068-  50 2.10  69 2.10  78 2.18  57 2.19  70 2.26  93 2.26  77 2.30   1 3.37
                            24 3.50  17 3.50  11 3.50  25 3.50   5 3.52   4 3.65
  17  0.106  0.983  0.171-  94 2.09 110 2.13  82 2.17  70 2.19 106 2.19  93 2.23  86 2.30  32 3.39
                             5 3.47   9 3.48  16 3.50  22 3.52  25 3.54  29 3.67
  18  0.356  0.484  0.171-  95 2.09 111 2.13  83 2.16  71 2.19 107 2.19  90 2.23  87 2.29  29 3.37
                             6 3.48  10 3.48  13 3.50  23 3.52  26 3.54  30 3.65
  19  0.608  0.985  0.171-  96 2.09 112 2.14  84 2.18  72 2.19 108 2.21  91 2.23  88 2.27  30 3.39
                            11 3.47   7 3.49  24 3.49  14 3.51  27 3.52  31 3.70
  20  0.855  0.483  0.173-  97 2.10 113 2.11  85 2.18 109 2.19  92 2.23  73 2.24  89 2.33  31 3.31
                            28 3.51   8 3.51  12 3.53  21 3.53  15 3.53  32 3.65
  21  0.089  0.495  0.183- 114 2.09  98 2.11  97 2.17  90 2.18  74 2.24  89 2.27 102 2.29  25 3.37
                            13 3.49  32 3.51  12 3.53  20 3.53  26 3.62  33 3.64
  22  0.339  0.995  0.182- 115 2.10  99 2.11  94 2.17  91 2.19  75 2.24 103 2.26  86 2.27  26 3.38
                            14 3.49  29 3.51   9 3.52  17 3.52  34 3.61  27 3.63
  23  0.589  0.493  0.182- 100 2.08 116 2.12  95 2.17  92 2.18  76 2.23  87 2.29 104 2.30  27 3.36
                            15 3.49  35 3.52  18 3.52  10 3.52  30 3.56  28 3.68
  24  0.839  0.996  0.183- 117 2.10 101 2.10  96 2.18  93 2.18  77 2.25  88 2.26 105 2.29  28 3.37
                            19 3.49  16 3.50  11 3.52  31 3.54  36 3.62  25 3.64
  25  0.005  0.231  0.191-  78 2.10  97 2.10 121 2.17  98 2.19 105 2.21 106 2.30  93 2.30  21 3.37
                            37 3.45  16 3.50  17 3.54  29 3.55  24 3.64  36 3.66
  26  0.253  0.730  0.191-  94 2.10  79 2.10 102 2.18  99 2.20 118 2.20 107 2.29  90 2.29  22 3.38
                            38 3.45  13 3.50  18 3.54  30 3.55  21 3.62  33 3.65
  27  0.504  0.229  0.191-  80 2.09  95 2.11 100 2.18 119 2.19 103 2.19  91 2.29 108 2.29  23 3.36
                            39 3.47  14 3.49  19 3.52  31 3.58  22 3.63  34 3.66
  28  0.757  0.730  0.191-  81 2.08  96 2.11 101 2.16 120 2.22 104 2.23 109 2.24  92 2.30  24 3.37
                            15 3.50  32 3.50  35 3.50  20 3.51  40 3.54  23 3.68
  29  0.240  0.242  0.201-  98 2.10  83 2.10 122 2.19 103 2.21 111 2.21  86 2.23 106 2.29  18 3.37
                            37 3.41  42 3.50  22 3.51  25 3.55  34 3.63  17 3.67
  30  0.488  0.743  0.200-  99 2.08  84 2.09 112 2.20 123 2.20  87 2.22 104 2.25 107 2.29  19 3.39
                            38 3.44  43 3.49  35 3.51  26 3.55  23 3.56  18 3.65
  31  0.741  0.246  0.204-  85 2.11 113 2.12 100 2.12 105 2.21 124 2.25  88 2.30 108 2.31  20 3.31
                            39 3.44  24 3.54  44 3.58  27 3.58  36 3.62  19 3.70
  32  0.989  0.741  0.202- 101 2.12  82 2.13 110 2.19 125 2.21 102 2.21  89 2.22 109 2.27  17 3.39
                            41 3.47  40 3.49  28 3.50  21 3.51  33 3.64  20 3.65
  33  0.123  0.642  0.314- 142 2.02 126 2.16 138 2.17 114 2.20 125 2.25 118 2.37 102 2.42  45 3.23
                            41 3.48  38 3.54  32 3.64  21 3.64  26 3.65  46 3.71
  34  0.371  0.141  0.313- 143 2.03 127 2.14 139 2.19 115 2.20 122 2.24 119 2.36 103 2.42  46 3.23
                            42 3.49  39 3.53  22 3.61  29 3.63  27 3.66  47 3.67
  35  0.623  0.647  0.305- 140 2.14 128 2.16 144 2.19 116 2.20 123 2.21 104 2.22 120 2.25  49 3.32
                            47 3.41  43 3.44  28 3.50  30 3.51  23 3.52  40 3.56  48 3.71
  36  0.874  0.140  0.314- 145 2.03 129 2.12 141 2.13 117 2.23 124 2.29 105 2.38 121 2.43  48 3.22
                            44 3.44  37 3.54  31 3.62  24 3.62  25 3.66  45 3.74
  37  0.109  0.161  0.312- 130 2.09 121 2.13 106 2.16 122 2.16 129 2.17 134 2.17  29 3.41  25 3.45
                            41 3.45  45 3.51  36 3.54  42 3.58
  38  0.358  0.660  0.313- 131 2.10 126 2.15 107 2.16 118 2.16 135 2.16 123 2.16  30 3.44  42 3.45
                            26 3.45  46 3.53  33 3.54  43 3.58
  39  0.606  0.159  0.314- 136 2.11 132 2.11 108 2.16 127 2.16 124 2.18 119 2.20  43 3.44  31 3.44
                            27 3.47  47 3.47  34 3.53  44 3.69
  40  0.859  0.662  0.318- 133 2.11 125 2.18 146 2.19 120 2.19 137 2.22 128 2.26 109 2.26  32 3.49
                            44 3.49  48 3.51  28 3.54  35 3.56  41 3.59  49 3.72
  41  0.026  0.889  0.324- 110 2.05 138 2.15 129 2.16 137 2.18 130 2.20 125 2.30  37 3.45  32 3.47
                            33 3.48  46 3.51  40 3.59
  42  0.275  0.389  0.325- 111 2.06 139 2.13 126 2.14 131 2.24 134 2.26 122 2.29  38 3.45  34 3.49
                            29 3.50  47 3.50  37 3.58
  43  0.524  0.888  0.325- 112 2.06 127 2.14 140 2.14 132 2.18 135 2.27 123 2.29  39 3.44  35 3.44
                            30 3.49  48 3.55  38 3.58
  44  0.782  0.385  0.335- 147 2.07 141 2.12 133 2.15 128 2.24 113 2.25 124 2.27 136 2.61  49 3.29
                            36 3.44  45 3.45  40 3.49  31 3.58  39 3.69
  45  0.011  0.407  0.336- 142 2.03 114 2.07 133 2.16 141 2.23 134 2.29 121 2.30  33 3.23  44 3.45
                            37 3.51  36 3.74
  46  0.258  0.907  0.336- 143 2.02 115 2.07 130 2.15 138 2.27 118 2.30 135 2.31  34 3.23  41 3.51
                            38 3.53  33 3.71
  47  0.507  0.402  0.334- 116 2.06 136 2.14 131 2.16 144 2.22 119 2.23 139 2.24  35 3.41  39 3.47
                            42 3.50  34 3.67  49 3.89
  48  0.759  0.909  0.336- 145 2.01 117 2.05 132 2.17 137 2.25 120 2.32 140 2.36  36 3.22  40 3.51
                            43 3.55  35 3.71
  49  0.696  0.550  0.424- 147 1.94 144 2.13 146 2.20 152 2.34 128 2.36 163 2.46 166 2.49 165 2.65
                            44 3.29  35 3.32  40 3.72  47 3.89
  50  0.024  0.173  0.000-  16 2.10   1 2.18
  51  0.274  0.673  0.000-  13 2.10   2 2.18
  52  0.524  0.173  0.000-  14 2.10   3 2.18
  53  0.774  0.673  0.000-  15 2.10   4 2.18
  54  0.215  0.432  0.016-  13 2.19   6 2.22   1 2.30
  55  0.465  0.932  0.016-  14 2.19   7 2.22   2 2.30
  56  0.715  0.432  0.016-  15 2.19   8 2.22   3 2.30
  57  0.965  0.932  0.016-  16 2.19   5 2.22   4 2.30
  58  0.207  0.891  0.025-   5 2.19   2 2.26   9 2.30
  59  0.457  0.391  0.025-   6 2.19   3 2.26  10 2.30
  60  0.707  0.891  0.025-   7 2.19   4 2.26  11 2.30
  61  0.957  0.391  0.025-   8 2.19   1 2.26  12 2.30
  62  0.197  0.226  0.044-   9 2.10   1 2.10   6 2.18
  63  0.447  0.726  0.044-  10 2.10   2 2.10   7 2.18
  64  0.697  0.226  0.044-  11 2.10   3 2.10   8 2.18
  65  0.947  0.726  0.044-  12 2.10   4 2.10   5 2.18
  66  0.111  0.675  0.062-   5 2.10  13 2.10  12 2.18
  67  0.361  0.175  0.062-   6 2.10  14 2.10   9 2.18
  68  0.611  0.675  0.062-   7 2.10  15 2.10  10 2.18
  69  0.861  0.175  0.062-   8 2.10  16 2.10  11 2.18
  70  0.101  0.010  0.081-  17 2.19   9 2.19  16 2.26   5 2.30
  71  0.351  0.510  0.081-  18 2.19  10 2.19  13 2.26   6 2.30
  72  0.601  0.010  0.081-  19 2.19  11 2.19  14 2.26   7 2.30
  73  0.851  0.510  0.081-  12 2.19  20 2.24  15 2.26   8 2.30
  74  0.093  0.470  0.090-   1 2.19  12 2.22  21 2.24  13 2.30
  75  0.343  0.970  0.090-   2 2.19   9 2.22  22 2.24  14 2.30
  76  0.593  0.470  0.090-   3 2.19  10 2.22  23 2.23  15 2.30
  77  0.843  0.970  0.090-   4 2.19  11 2.22  24 2.25  16 2.30
  78  0.034  0.229  0.106-   1 2.10  25 2.10  16 2.18
  79  0.284  0.729  0.106-   2 2.10  26 2.10  13 2.18
  80  0.534  0.229  0.106-  27 2.09   3 2.10  14 2.18
  81  0.784  0.729  0.106-  28 2.08   4 2.10  15 2.18
  82  0.045  0.833  0.134-   5 2.07  32 2.13  17 2.17
  83  0.297  0.334  0.134-   6 2.06  29 2.10  18 2.16
  84  0.546  0.834  0.133-   7 2.06  30 2.09  19 2.18
  85  0.796  0.333  0.134-   8 2.08  31 2.11  20 2.18
  86  0.232  0.093  0.146-   9 2.16  29 2.23  22 2.27  17 2.30
  87  0.482  0.594  0.147-  10 2.18  30 2.22  23 2.29  18 2.29
  88  0.732  0.094  0.147-  11 2.18  24 2.26  19 2.27  31 2.30
  89  0.982  0.593  0.147-  12 2.18  32 2.22  21 2.27  20 2.33
  90  0.226  0.552  0.160-  21 2.18  18 2.23  13 2.26  26 2.29
  91  0.476  0.051  0.161-  22 2.19  19 2.23  14 2.27  27 2.29
  92  0.725  0.552  0.161-  23 2.18  20 2.23  15 2.26  28 2.30
  93  0.975  0.053  0.161-  24 2.18  17 2.23  16 2.26  25 2.30
  94  0.215  0.890  0.181-  17 2.09  26 2.10  22 2.17
  95  0.465  0.390  0.181-  18 2.09  27 2.11  23 2.17
  96  0.715  0.890  0.181-  19 2.09  28 2.11  24 2.18
  97  0.965  0.391  0.182-  20 2.10  25 2.10  21 2.17
  98  0.130  0.335  0.192-  29 2.10  21 2.11  25 2.19
  99  0.379  0.835  0.194-  30 2.08  22 2.11  26 2.20
 100  0.628  0.335  0.194-  23 2.08  31 2.12  27 2.18
 101  0.880  0.837  0.194-  24 2.10  32 2.12  28 2.16
 102  0.118  0.672  0.214-  26 2.18  32 2.21  21 2.29  33 2.42
 103  0.367  0.170  0.213-  27 2.19  29 2.21  22 2.26  34 2.42
 104  0.618  0.671  0.214-  35 2.22  28 2.23  30 2.25  23 2.30
 105  0.868  0.171  0.216-  25 2.21  31 2.21  24 2.29  36 2.38
 106  0.116  0.131  0.224-  37 2.16  17 2.19  29 2.29  25 2.30
 107  0.364  0.631  0.224-  38 2.16  18 2.19  26 2.29  30 2.29
 108  0.615  0.132  0.225-  39 2.16  19 2.21  27 2.29  31 2.31
 109  0.864  0.632  0.224-  20 2.19  28 2.24  40 2.26  32 2.27
 110  0.047  0.894  0.240-  41 2.05  17 2.13  32 2.19
 111  0.297  0.396  0.241-  42 2.06  18 2.13  29 2.21
 112  0.547  0.894  0.240-  43 2.06  19 2.14  30 2.20
 113  0.796  0.394  0.241-  20 2.11  31 2.12  44 2.25
 114  0.071  0.493  0.269-  45 2.07  21 2.09  33 2.20
 115  0.315  0.993  0.268-  46 2.07  22 2.10  34 2.20
 116  0.562  0.494  0.269-  47 2.06  23 2.12  35 2.20
 117  0.811  0.994  0.268-  48 2.05  24 2.10  36 2.23
 118  0.251  0.750  0.283-  38 2.16  26 2.20  46 2.30  33 2.37
 119  0.498  0.251  0.281-  27 2.19  39 2.20  47 2.23  34 2.36
 120  0.750  0.749  0.283-  40 2.19  28 2.22  35 2.25  48 2.32
 121  0.005  0.252  0.281-  37 2.13  25 2.17  45 2.30  36 2.43
 122  0.246  0.215  0.291-  37 2.16  29 2.19  34 2.24  42 2.29
 123  0.494  0.713  0.290-  38 2.16  30 2.20  35 2.21  43 2.29
 124  0.744  0.216  0.297-  39 2.18  31 2.25  44 2.27  36 2.29
 125  0.995  0.712  0.293-  40 2.18  32 2.21  33 2.25  41 2.30
 126  0.239  0.555  0.329-  42 2.14  38 2.15  33 2.16
 127  0.486  0.053  0.327-  34 2.14  43 2.14  39 2.16
 128  0.731  0.552  0.328-  35 2.16  44 2.24  40 2.26  49 2.36
 129  0.989  0.056  0.328-  36 2.12  41 2.16  37 2.17
 130  0.147  0.004  0.331-  37 2.09  46 2.15  41 2.20
 131  0.398  0.505  0.335-  38 2.10  47 2.16  42 2.24
 132  0.643  0.001  0.334-  39 2.11  48 2.17  43 2.18
 133  0.897  0.500  0.326-  40 2.11  44 2.15  45 2.16
 134  0.138  0.321  0.352-  37 2.17  42 2.26  45 2.29
 135  0.386  0.820  0.351-  38 2.16  43 2.27  46 2.31
 136  0.618  0.312  0.355-  39 2.11  47 2.14  44 2.61
 137  0.890  0.834  0.346-  41 2.18  40 2.22  48 2.25
 138  0.132  0.800  0.356-  41 2.15  33 2.17  46 2.27
 139  0.381  0.300  0.356-  42 2.13  34 2.19  47 2.24
 140  0.628  0.795  0.354-  35 2.14  43 2.14  48 2.36
 141  0.891  0.295  0.356-  44 2.12  36 2.13  45 2.23
 142  0.065  0.545  0.375-  33 2.02  45 2.03
 143  0.315  0.044  0.375-  46 2.02  34 2.03
 144  0.577  0.547  0.377-  49 2.13  35 2.19  47 2.22
 145  0.815  0.043  0.375-  48 2.01  36 2.03
 146  0.813  0.664  0.404- 148 0.97  40 2.19  49 2.20
 147  0.762  0.421  0.418-  49 1.94  44 2.07
 148  0.842  0.719  0.429- 146 0.97
 149  0.488  0.509  0.539- 164 1.10
 150  0.637  0.415  0.525- 163 1.10
 151  0.471  0.266  0.502- 162 1.10
 152  0.604  0.398  0.455- 163 1.12  49 2.34
 153  0.393  0.332  0.543- 162 1.10
 154  0.501  0.315  0.570- 162 1.10
 155  0.627  0.578  0.559- 165 1.09
 156  0.460  0.465  0.471- 164 1.10
 157  0.569  0.651  0.506- 165 1.09
 158  0.770  0.668  0.527- 166 1.10
 159  0.771  0.833  0.463- 167 1.10
 160  0.696  0.857  0.517- 167 1.10
 161  0.655  0.808  0.451- 167 1.10
 162  0.464  0.333  0.532- 151 1.10 153 1.10 154 1.10 164 1.53
 163  0.597  0.451  0.492- 150 1.10 152 1.12 164 1.52  49 2.46
 164  0.499  0.445  0.508- 149 1.10 156 1.10 163 1.52 162 1.53
 165  0.631  0.621  0.519- 155 1.09 157 1.09 166 1.41  49 2.65
 166  0.710  0.683  0.503- 158 1.10 165 1.41 167 1.52  49 2.49
 167  0.708  0.800  0.482- 161 1.10 160 1.10 159 1.10 166 1.52
 
  Warning from LATTYP: Monoclinic adjustement (A1->A3, A2->A1, A3->A2)!
  Warning from LATTYP: Got some problem with cell dimensions!
  Tried to take original basis but could not verify dimensions!
  LATTYP: Found a simple monoclinic cell.
 ALAT       =    18.5584556648
 B/A-ratio  =     1.2917238965
 C/A-ratio  =     1.7011970181
 COS(beta)  =    -0.9496615564
  
  Lattice vectors:
  
 A1 = ( -14.0305058395, -12.1474763861,   0.0000000000)
 A2 = (   0.0000000000,   0.0000000000, -23.9724006653)
 A3 = (  29.1411063110,  12.1474763861,   0.0000000000)


Analysis of symmetry for initial positions (statically):
=====================================================================
 Subroutine PRICEL returns:
 Original cell was already a primitive cell.
 

 Routine SETGRP: Setting up the symmetry group for a 
 simple monoclinic supercell.


 Subroutine GETGRP returns: Found  1 space group operations
 (whereof  1 operations were pure point group operations)
 out of a pool of  4 trial point group operations.


The static configuration has the point symmetry C_1 .


Analysis of symmetry for dynamics (positions and initial velocities):
=====================================================================
 Subroutine PRICEL returns:
 Original cell was already a primitive cell.
 

 Routine SETGRP: Setting up the symmetry group for a 
 simple monoclinic supercell.


 Subroutine GETGRP returns: Found  1 space group operations
 (whereof  1 operations were pure point group operations)
 out of a pool of  4 trial point group operations.


The dynamic configuration has the point symmetry C_1 .


Analysis of constrained symmetry for selective dynamics:
=====================================================================
 Subroutine PRICEL returns:
 Original cell was already a primitive cell.
 

 Routine SETGRP: Setting up the symmetry group for a 
 simple monoclinic supercell.


 Subroutine GETGRP returns: Found  1 space group operations
 (whereof  1 operations were pure point group operations)
 out of a pool of  4 trial point group operations.


The constrained configuration has the point symmetry C_1 .


Analysis of structural, dynamic, and magnetic symmetry:
=====================================================================
 Subroutine PRICEL returns:
 Original cell was already a primitive cell.
 

 Routine SETGRP: Setting up the symmetry group for a 
 simple monoclinic supercell.


 Subroutine GETGRP returns: Found  1 space group operations
 (whereof  1 operations were pure point group operations)
 out of a pool of  4 trial point group operations.


The magnetic configuration has the point symmetry C_1 .


 Subroutine INISYM returns: Found  1 space group operations
 (whereof  1 operations are pure point group operations),
 and found     1 'primitive' translations

 
 
 KPOINTS: Monkhorst Pack                          

Automatic generation of k-mesh.
Space group operators:
 irot       det(A)        alpha          n_x          n_y          n_z        tau_x        tau_y        tau_z
    1     1.000000     0.000001     1.000000     0.000000     0.000000     0.000000     0.000000     0.000000
 
 Subroutine IBZKPT returns following result:
 ===========================================
 
 Found      2 irreducible k-points:
 
 Following reciprocal coordinates:
            Coordinates               Weight
  0.250000  0.250000  0.000000      2.000000
 -0.250000  0.250000  0.000000      2.000000
 
 Following cartesian coordinates:
            Coordinates               Weight
  0.016545  0.022051  0.000000      2.000000
 -0.016545  0.019109  0.000000      2.000000
 


--------------------------------------------------------------------------------------------------------




 Dimension of arrays:
   k-points           NKPTS =      2   k-points in BZ     NKDIM =      2   number of bands    NBANDS=    640
   number of dos      NEDOS =    301   number of ions     NIONS =    167
   non local maximal  LDIM  =      6   non local SUM 2l+1 LMDIM =     18
   total plane-waves  NPLWV = 823200
   max r-space proj   IRMAX =   2561   max aug-charges    IRDMAX=   7978
   dimension x,y,z NGX =    84 NGY =   70 NGZ =  140
   dimension x,y,z NGXF=   168 NGYF=  140 NGZF=  280
   support grid    NGXF=   168 NGYF=  140 NGZF=  280
   ions per type =              49  98  14   6
   NGX,Y,Z   is equivalent  to a cutoff of   9.24,  9.54,  9.71 a.u.
   NGXF,Y,Z  is equivalent  to a cutoff of  18.48, 19.08, 19.42 a.u.

 SYSTEM =  mZrO2_n111_dimer                        
 POSCAR =  Zr   O    H    C                        

 Startparameter for this run:
   NWRITE =      2    write-flag & timer
   PREC   = normal    normal or accurate (medium, high low for compatibility)
   ISTART =      1    job   : 0-new  1-cont  2-samecut
   ICHARG =      1    charge: 1-file 2-atom 10-const
   ISPIN  =      2    spin polarized calculation?
   LNONCOLLINEAR =      F non collinear calculations
   LSORBIT =      F    spin-orbit coupling
   INIWAV =      1    electr: 0-lowe 1-rand  2-diag
   LASPH  =      F    aspherical Exc in radial PAW
   METAGGA=      F    non-selfconsistent MetaGGA calc.

 Electronic Relaxation 1
   ENCUT  =  500.0 eV  36.75 Ry    6.06 a.u.  27.55 22.24 43.71*2*pi/ulx,y,z
   ENINI  =  500.0     initial cutoff
   ENAUG  =  644.9 eV  augmentation charge cutoff
   NELM   =    300;   NELMIN=  2; NELMDL=  0     # of ELM steps 
   EDIFF  = 0.1E-05   stopping-criterion for ELM
   LREAL  =      T    real-space projection
   NLSPLINE    = F    spline interpolate recip. space projectors
   LCOMPAT=      F    compatible to vasp.4.4
   GGA_COMPAT  = T    GGA compatible to vasp.4.4-vasp.4.6
   LMAXPAW     = -100 max onsite density
   LMAXMIX     =    2 max onsite mixed and CHGCAR
   VOSKOWN=      0    Vosko Wilk Nusair interpolation
   ROPT   =   -0.00050  -0.00050  -0.00050  -0.00050
 Ionic relaxation
   EDIFFG = -.5E-01   stopping-criterion for IOM
   NSW    =      0    number of steps for IOM
   NBLOCK =      1;   KBLOCK =      1    inner block; outer block 
   IBRION =     -1    ionic relax: 0-MD 1-quasi-New 2-CG
   NFREE  =      0    steps in history (QN), initial steepest desc. (CG)
   ISIF   =      2    stress and relaxation
   IWAVPR =     10    prediction:  0-non 1-charg 2-wave 3-comb
   ISYM   =      2    0-nonsym 1-usesym 2-fastsym
   LCORR  =      T    Harris-Foulkes like correction to forces

   POTIM  = 0.0000    time-step for ionic-motion
   TEIN   =    0.0    initial temperature
   TEBEG  =    0.0;   TEEND  =   0.0 temperature during run
   SMASS  =  -3.00    Nose mass-parameter (am)
   estimated Nose-frequenzy (Omega)   =  0.10E-29 period in steps =  0.00 mass=  -0.522E-26a.u.
   SCALEE = 1.0000    scale energy and forces
   NPACO  =    256;   APACO  = 16.0  distance and # of slots for P.C.
   PSTRESS=    0.0 pullay stress

  Mass of Ions in am
   POMASS =  91.22 16.00  1.00 12.01
  Ionic Valenz
   ZVAL   =  12.00  6.00  1.00  4.00
  Atomic Wigner-Seitz radii
   RWIGS  =  -1.00 -1.00 -1.00 -1.00
  virtual crystal weights 
   VCA    =   1.00  1.00  1.00  1.00
   NELECT =    1214.0000    total number of electrons
   NUPDOWN=      -1.0000    fix difference up-down

 DOS related values:
   EMIN   =  10.00;   EMAX   =-10.00  energy-range for DOS
   EFERMI =   0.00
   ISMEAR =     0;   SIGMA  =   0.05  broadening in eV -4-tet -1-fermi 0-gaus

 Electronic relaxation 2 (details)
   IALGO  =     38    algorithm
   LDIAG  =      T    sub-space diagonalisation (order eigenvalues)
   LSUBROT=      F    optimize rotation matrix (better conditioning)
   TURBO    =      0    0=normal 1=particle mesh
   IRESTART =      0    0=no restart 2=restart with 2 vectors
   NREBOOT  =      0    no. of reboots
   NMIN     =      0    reboot dimension
   EREF     =   0.00    reference energy to select bands
   IMIX   =      4    mixing-type and parameters
     AMIX     =   0.40;   BMIX     =  1.00
     AMIX_MAG =   1.60;   BMIX_MAG =  1.00
     AMIN     =   0.10
     WC   =   100.;   INIMIX=   1;  MIXPRE=   1;  MAXMIX= -45

 Intra band minimization:
   WEIMIN = 0.0000     energy-eigenvalue tresh-hold
   EBREAK =  0.39E-09  absolut break condition
   DEPER  =   0.30     relativ break condition  

   TIME   =   0.40     timestep for ELM

  volume/ion in A,a.u.               =      26.35       177.81
  Fermi-wavevector in a.u.,A,eV,Ry     =   1.065748  2.013972 15.453760  1.135819
  Thomas-Fermi vector in A             =   2.201310
 
 Write flags
   LWAVE        =      T    write WAVECAR
   LDOWNSAMPLE  =      F    k-point downsampling of WAVECAR
   LCHARG       =      T    write CHGCAR
   LVTOT        =      F    write LOCPOT, total local potential
   LVHAR        =      F    write LOCPOT, Hartree potential only
   LELF         =      F    write electronic localiz. function (ELF)
   LORBIT       =      0    0 simple, 1 ext, 2 COOP (PROOUT), +10 PAW based schemes


 Dipole corrections
   LMONO  =      F    monopole corrections only (constant potential shift)
   LDIPOL =      F    correct potential (dipole corrections)
   IDIPOL =      3    1-x, 2-y, 3-z, 4-all directions 
   EPSILON=  1.0000000 bulk dielectric constant

 LDA+U is selected, type is set to LDAUTYPE =  2
   angular momentum for each species LDAUL =     2   -1   -1   -1
   U (eV)           for each species LDAUU =   4.0  0.0  0.0  0.0
   J (eV)           for each species LDAUJ =   0.0  0.0  0.0  0.0
 Exchange correlation treatment:
   GGA     =    --    GGA type
   LEXCH   =     8    internal setting for exchange type
   VOSKOWN=      0    Vosko Wilk Nusair interpolation
   LHFCALC =     F    Hartree Fock is set to
   LHFONE  =     F    Hartree Fock one center treatment
   AEXX    =    0.0000 exact exchange contribution

 Linear response parameters
   LEPSILON=     F    determine dielectric tensor
   LRPA    =     F    only Hartree local field effects (RPA)
   LNABLA  =     F    use nabla operator in PAW spheres
   LVEL    =     F    velocity operator in full k-point grid
   LINTERFAST=   F  fast interpolation
   KINTER  =     0    interpolate to denser k-point grid
   CSHIFT  =0.1000    complex shift for real part using Kramers Kronig
   OMEGAMAX=  -1.0    maximum frequency
   DEG_THRESHOLD= 0.2000000E-02 threshold for treating states as degnerate
   RTIME   =   -0.100 relaxation time in fs
  (WPLASMAI=    0.000 imaginary part of plasma frequency in eV, 0.658/RTIME)
   DFIELD  = 0.0000000 0.0000000 0.0000000 field for delta impulse in time
 
 Orbital magnetization related:
   ORBITALMAG=     F  switch on orbital magnetization
   LCHIMAG   =     F  perturbation theory with respect to B field
   DQ        =  0.001000  dq finite difference perturbation B field
   LLRAUG    =     F  two centre corrections for induced B field



--------------------------------------------------------------------------------------------------------


 Static calculation
 charge density and potential will be updated during run
 spin polarized calculation
 Variant of blocked Davidson
 Davidson routine will perform the subspace rotation
 perform sub-space diagonalisation
    after iterative eigenvector-optimisation
 modified Broyden-mixing scheme, WC =      100.0
 initial mixing is a Kerker type mixing with AMIX =  0.4000 and BMIX =      1.0000
 Hartree-type preconditioning will be used
 using additional bands           33
 real space projection scheme for non local part
 use partial core corrections
 calculate Harris-corrections to forces 
   (improved forces if not selfconsistent)
 use gradient corrections 
 use of overlap-Matrix (Vanderbilt PP)
 Gauss-broadening in eV      SIGMA  =   0.05


--------------------------------------------------------------------------------------------------------


  energy-cutoff  :      500.00
  volume of cell :     4400.27
      direct lattice vectors                 reciprocal lattice vectors
    15.110600471  0.000000000  0.000000000     0.066178707  0.005884289  0.000000000
    -1.080094632 12.147476386  0.000000000     0.000000000  0.082321625  0.000000000
     0.000000000  0.000000000 23.972400665     0.000000000  0.000000000  0.041714637

  length of vectors
    15.110600471 12.195400238 23.972400665     0.066439793  0.082321625  0.041714637


 
 old parameters found on file WAVECAR:
  energy-cutoff  :      500.00
  volume of cell :     4400.27
      direct lattice vectors                 reciprocal lattice vectors
    15.110600471  0.000000000  0.000000000     0.066178707  0.005884289  0.000000000
    -1.080094632 12.147476386  0.000000000     0.000000000  0.082321625  0.000000000
     0.000000000  0.000000000 23.972400665     0.000000000  0.000000000  0.041714637

  length of vectors

 
 k-points in units of 2pi/SCALE and weight: Monkhorst Pack                          
   0.01654468  0.02205148  0.00000000       0.500
  -0.01654468  0.01910933  0.00000000       0.500
 
 k-points in reciprocal lattice and weights: Monkhorst Pack                          
   0.25000000  0.25000000  0.00000000       0.500
  -0.25000000  0.25000000  0.00000000       0.500
 
 position of ions in fractional coordinates (direct lattice) 
   0.08848000  0.32082999  0.03824000
   0.33847998  0.82083000  0.03824000
   0.58847999  0.32082999  0.03824000
   0.83848001  0.82083000  0.03824000
   0.07020001  0.83354995  0.04873000
   0.32019998  0.33355000  0.04873000
   0.57020004  0.83354995  0.04873000
   0.82020001  0.33355000  0.04873000
   0.23783000  0.06778000  0.05703000
   0.48783004  0.56778001  0.05703000
   0.73783001  0.06778000  0.05703000
   0.98782997  0.56778001  0.05703000
   0.21954999  0.58051001  0.06752000
   0.46955000  0.08051000  0.06752000
   0.71954999  0.58051001  0.06752000
   0.96955000  0.08051000  0.06752000
   0.10597928  0.98313164  0.17095230
   0.35632979  0.48384378  0.17113037
   0.60774304  0.98479828  0.17128048
   0.85528066  0.48252142  0.17323968
   0.08935010  0.49496552  0.18250432
   0.33912175  0.99521215  0.18233116
   0.58920883  0.49296066  0.18209953
   0.83874281  0.99593683  0.18269266
   0.00463716  0.23053344  0.19139696
   0.25316096  0.73005030  0.19130068
   0.50408012  0.22925691  0.19101624
   0.75719275  0.73034296  0.19089230
   0.23966401  0.24220056  0.20084035
   0.48814933  0.74304099  0.19992015
   0.74113009  0.24591576  0.20412214
   0.98872926  0.74066458  0.20188276
   0.12286248  0.64164354  0.31406772
   0.37138967  0.14051008  0.31312841
   0.62340901  0.64735287  0.30525078
   0.87405975  0.14029338  0.31401283
   0.10945681  0.16134210  0.31243488
   0.35810013  0.66026924  0.31261280
   0.60606967  0.15922673  0.31392714
   0.85861039  0.66165784  0.31759062
   0.02631208  0.88942454  0.32423147
   0.27520721  0.38902355  0.32548463
   0.52410869  0.88781983  0.32450840
   0.78208719  0.38480625  0.33454211
   0.01104354  0.40742858  0.33553702
   0.25844087  0.90737125  0.33605410
   0.50713338  0.40192815  0.33446684
   0.75940888  0.90865197  0.33625873
   0.69625741  0.55017621  0.42429951
   0.02440000  0.17254999  0.00000000
   0.27439999  0.67255002  0.00000000
   0.52439999  0.17254999  0.00000000
   0.77439999  0.67255002  0.00000000
   0.21455000  0.43156997  0.01581000
   0.46455001  0.93156996  0.01581000
   0.71455008  0.43156997  0.01581000
   0.96455004  0.93156996  0.01581000
   0.20673000  0.89092997  0.02490000
   0.45673000  0.39092998  0.02490000
   0.70672997  0.89092997  0.02490000
   0.95673004  0.39092998  0.02490000
   0.19748000  0.22610000  0.04418000
   0.44748002  0.72610003  0.04418000
   0.69748003  0.22610000  0.04418000
   0.94747999  0.72610003  0.04418000
   0.11054000  0.67523994  0.06158000
   0.36054002  0.17523999  0.06158000
   0.61053998  0.67523994  0.06158000
   0.86053999  0.17523999  0.06158000
   0.10129000  0.01041000  0.08086000
   0.35129000  0.51041000  0.08086000
   0.60128997  0.01041000  0.08086000
   0.85128994  0.51041000  0.08086000
   0.09348000  0.46976000  0.08995000
   0.34348000  0.96975995  0.08995000
   0.59348001  0.46976000  0.08995000
   0.84347996  0.96975995  0.08995000
   0.03362000  0.22878000  0.10576000
   0.28361999  0.72877998  0.10576000
   0.53361997  0.22878000  0.10576000
   0.78362002  0.72877998  0.10576000
   0.04532851  0.83317567  0.13356059
   0.29654833  0.33378253  0.13356010
   0.54632200  0.83414458  0.13343147
   0.79589918  0.33257875  0.13403136
   0.23152739  0.09347246  0.14623210
   0.48154703  0.59358718  0.14668160
   0.73168035  0.09386097  0.14694085
   0.98176356  0.59345840  0.14686768
   0.22566761  0.55230548  0.16047173
   0.47620540  0.05144709  0.16071543
   0.72498722  0.55214797  0.16052091
   0.97512805  0.05251529  0.16079084
   0.21500422  0.89042195  0.18109497
   0.46458503  0.38974742  0.18077536
   0.71502306  0.88967855  0.18122555
   0.96530546  0.39068120  0.18216605
   0.12996218  0.33502469  0.19222807
   0.37897450  0.83533192  0.19352819
   0.62817441  0.33512992  0.19431551
   0.87960972  0.83680934  0.19382792
   0.11755691  0.67151443  0.21426574
   0.36736404  0.17013437  0.21329214
   0.61834609  0.67094559  0.21366645
   0.86792696  0.17093081  0.21610620
   0.11558271  0.13051906  0.22391651
   0.36389347  0.63122930  0.22401683
   0.61505251  0.13168144  0.22530959
   0.86406348  0.63221539  0.22446753
   0.04698516  0.89395187  0.23972870
   0.29711372  0.39613326  0.24069863
   0.54722025  0.89399202  0.24002832
   0.79560619  0.39434032  0.24114941
   0.07078433  0.49250131  0.26873220
   0.31490175  0.99284549  0.26845780
   0.56168603  0.49384732  0.26868418
   0.81105799  0.99436564  0.26849949
   0.25076373  0.75033521  0.28262523
   0.49760486  0.25068293  0.28149040
   0.75031553  0.74895571  0.28286917
   0.00520294  0.25153194  0.28133639
   0.24562682  0.21468289  0.29118388
   0.49405361  0.71282409  0.29024868
   0.74381969  0.21641992  0.29658040
   0.99465321  0.71231602  0.29272437
   0.23897971  0.55479210  0.32926633
   0.48585466  0.05288807  0.32676665
   0.73125562  0.55176829  0.32833253
   0.98904953  0.05593703  0.32831980
   0.14658980  0.00397220  0.33062854
   0.39795612  0.50541069  0.33473495
   0.64297666  0.00114513  0.33433582
   0.89712349  0.50040009  0.32620103
   0.13752896  0.32135666  0.35156118
   0.38551953  0.81987154  0.35114784
   0.61769932  0.31219582  0.35521067
   0.88953256  0.83423931  0.34596841
   0.13169258  0.80014786  0.35619384
   0.38071107  0.29974307  0.35564350
   0.62840811  0.79478318  0.35434863
   0.89103147  0.29474167  0.35578861
   0.06537271  0.54453738  0.37472920
   0.31542776  0.04353557  0.37461058
   0.57689593  0.54691618  0.37704561
   0.81547370  0.04332877  0.37498240
   0.81298960  0.66372420  0.40432500
   0.76249186  0.42128867  0.41781458
   0.84200230  0.71931466  0.42861974
   0.48772115  0.50869759  0.53903245
   0.63725175  0.41539880  0.52495647
   0.47086752  0.26601030  0.50180436
   0.60441082  0.39750216  0.45486675
   0.39319344  0.33207895  0.54275026
   0.50070091  0.31484827  0.56962769
   0.62681598  0.57799328  0.55902714
   0.46043167  0.46539423  0.47076155
   0.56852448  0.65061588  0.50559765
   0.76980466  0.66812247  0.52747230
   0.77094513  0.83340090  0.46280861
   0.69637028  0.85700083  0.51661449
   0.65481511  0.80751964  0.45111774
   0.46387261  0.33319939  0.53162247
   0.59721642  0.45063917  0.49227428
   0.49937920  0.44518424  0.50773682
   0.63139775  0.62111653  0.51920487
   0.71039422  0.68307208  0.50328309
   0.70777162  0.80029613  0.48205690
 
 position of ions in cartesian coordinates  (Angst):
   0.99045921  3.89727473  0.91670460
   4.22806168  9.97101307  0.91670460
   8.54575920  3.89727473  0.91670460
  11.78336239  9.97101307  0.91670460
   0.16045142 10.12552833  1.16817511
   4.47814847  4.05179071  1.16817511
   7.71575212 10.12552833  1.16817511
  12.03344917  4.05179071  1.16817511
   3.52054525  0.82335597  1.36714601
   6.75814868  6.89709425  1.36714601
  11.07584571  0.82335597  1.36714601
  14.31344795  6.89709425  1.36714601
   2.69052649  7.05173159  1.61861647
   7.00822400  0.97799331  1.61861647
  10.24582672  7.05173159  1.61861647
  14.56352424  0.97799331  1.61861647
   0.53953542 11.94256836  4.09813693
   4.86175999  5.87748094  4.10240575
   8.11968690 11.96281390  4.10600417
  12.40263561  5.86141752  4.15297112
   0.81552405  6.01258193  4.37506658
   4.04941004 12.08931611  4.37091567
   8.37085502  5.98822795  4.36536301
  11.59820142 12.09811906  4.37958153
  -0.17892759  2.80039948  4.58824463
   3.03689066  8.86826875  4.58593659
   7.36933412  2.78489286  4.57911772
  10.65279755  8.87182388  4.57614680
   3.35986756  2.94212564  4.81462531
   6.57367488  9.02607285  4.79256598
  10.93330837  2.98725587  4.89329765
  14.14030494  8.99720546  4.83961452
   1.16349011  7.79434978  7.52895723
   5.46015671  1.70684286  7.50643980
   8.72088216  7.86370366  7.31759397
  13.05603749  1.70421052  7.52764134
   1.47969334  1.95989941  7.48981409
   4.69795481  8.02060495  7.49407938
   8.98609678  1.93420290  7.52558716
  12.25946550  8.03747303  7.61340948
  -0.56307129 10.80426364  7.77260661
   3.73836390  4.72565435  7.80264791
   6.96066766 10.78477040  7.77924537
  11.40217984  4.67442485  8.01977762
  -0.27318697  4.94922911  8.04362791
   2.92514996 11.02227080  8.05602356
   7.22896943  4.88241267  8.01797302
  10.49369412 11.03782831  8.06092903
   9.92662511  6.68325253 10.17147779
   0.18232835  2.09604693  0.00000000
   3.41993094  8.16978550  0.00000000
   7.73762846  2.09604693  0.00000000
  10.97523117  8.16978550  0.00000000
   2.77584291  5.24248600  0.37900365
   6.01344586 11.31622410  0.37900365
  10.33114434  5.24248600  0.37900365
  13.56874656 11.31622410  0.37900365
   2.16152573 10.82255077  0.59691280
   6.47922326  4.74881268  0.59691280
   9.71682548 10.82255077  0.59691280
  14.03452396  4.74881268  0.59691280
   2.73983193  2.74654436  1.05910064
   5.97743511  8.82028293  1.05910064
  10.29513263  2.74654436  1.05910064
  13.53273487  8.82028293  1.05910064
   0.94100273  8.20246124  1.47622036
   5.25870037  2.12872362  1.47622036
   8.49630260  8.20246124  1.47622036
  12.81400013  2.12872362  1.47622036
   1.51930892  0.12645522  1.93840825
   4.75691175  6.20019341  1.93840825
   9.07460880  0.12645522  1.93840825
  12.31221104  6.20019341  1.93840825
   0.90515363  5.70639848  2.15631746
   4.14275646 11.78013610  2.15631746
   8.46045399  5.70639848  2.15631746
  11.69805622 11.78013610  2.15631746
   0.26091433  2.77909971  2.53532100
   3.49851704  8.85283756  2.53532100
   7.81621408  2.77909971  2.53532100
  11.05381775  8.85283756  2.53532100
  -0.21496755 10.12098183  3.20176803
   4.12050668  4.05461544  3.20175623
   7.35429834 10.13275155  3.19867276
  11.66729804  4.03999246  3.21305336
   3.39755871  1.13545453  3.50553457
   6.63533449  7.21058621  3.51631001
  10.95475069  1.14017392  3.52252497
  14.19404567  7.20902185  3.52077096
   2.81343094  6.70911780  3.84689263
   7.14018181  0.62495227  3.85273467
  10.35862019  6.70720437  3.84807166
  14.67804886  0.63792831  3.85454245
   2.28710283 10.81637963  4.34128122
   6.59919467  4.73444763  4.33361941
   9.84349077 10.80734918  4.34441138
  14.16437249  4.74579063  4.36695754
   1.60194813  4.06970451  4.60816843
   4.82429478 10.14717482  4.63933520
   9.13012045  4.07098282  4.65820923
  12.38759776 10.16512164  4.64652066
   1.05105639  8.15720563  5.13646407
   5.36733006  2.06670327  5.11312475
   8.61889602  8.15029571  5.12209770
  12.93027602  2.07637803  5.18058437
   1.60555123  1.58547715  5.36781618
   4.81686145  7.66784303  5.37022113
   9.15158430  1.59959720  5.40121179
  12.37366555  7.67982149  5.38102559
  -0.25557863 10.85925920  5.74687248
   4.06170534  4.81201947  5.77012391
   7.30323065 10.85974690  5.75405515
  11.59616247  4.79023967  5.78093030
   0.53764569  5.98264798  6.44215587
   3.68598741 12.06056715  6.43557787
   7.95401130  5.99899872  6.44100491
  11.18156427 12.07903318  6.43657731
   2.97875746  9.11467927  6.77520525
   7.24834690  3.04516492  6.74800063
  10.52877514  9.09792182  6.78105319
  -0.19305876  3.05547833  6.74430865
   3.47969086  2.60785533  6.98037663
   6.69552921  8.65901375  6.95795768
  11.00580816  2.62895590  7.10974421
  14.26043853  8.65284203  7.01730582
   3.01189895  6.73932391  7.89330448
   7.28443147  0.64245659  7.83338113
  10.45374952  6.70259230  7.87091900
  14.88471508  0.67949374  7.87061388
   2.21076948  0.04825222  7.92595978
   5.46746457  6.13946440  8.02440034
   9.71452656  0.01391043  8.01483229
  13.01559519  6.07859834  7.81982178
   1.73104955  3.90367240  8.42776540
   4.93989269  9.95937021  8.41785671
   8.99660658  3.79239140  8.51525260
  12.54031368 10.13390237  8.29369343
   1.12571862  9.71977727  8.53882141
   5.42902193  3.64112187  8.52562852
   8.63718285  9.65460988  8.49458730
  13.14567170  3.58036743  8.52910714
   0.39966895  6.61475501  8.98315841
   4.71928034  0.52884727  8.98031504
   8.12652274  6.64365140  9.03868854
  12.27549807  0.52633523  8.98922833
  11.56787603  8.06257411  9.69264080
  11.06667825  5.11759420 10.01601856
  11.94623243  8.73785790 10.27504417
   6.82031795  6.17939193 12.92190195
   9.18058654  5.04604706 12.58446682
   6.82777465  3.23135385 12.02945509
   8.70367049  4.82864813 10.90424805
   5.58271229  4.03392125 13.01102668
   7.22582547  3.82461189 13.65534315
   8.84727845  7.02115977 13.40122260
   6.45472913  5.65336545 11.28528457
   7.88801958  7.90334103 12.12038948
  10.91057509  8.11600197 12.64477723
  10.74929194 10.12371774 11.09463335
   9.59693108 10.41039736 12.38448947
   9.02245190  9.80932578 10.81437523
   6.64950680  4.04753173 12.74426685
   8.53756577  5.47412870 11.80099620
   7.06507853  5.40786505 12.17167049
   8.86993456  7.54499837 12.44658707
   9.99670073  8.29760198 12.06490393
   9.83045860  9.72157829 11.55606108
 


--------------------------------------------------------------------------------------------------------


 k-point  1 :   0.2500 0.2500 0.0000  plane waves:  111683
 k-point  2 :  -0.2500 0.2500 0.0000  plane waves:  111725

 maximum and minimum number of plane-waves per node :     18644    18587

 maximum number of plane-waves:    111725
 maximum index in each direction: 
   IXMAX=   27   IYMAX=   21   IZMAX=   43
   IXMIN=  -27   IYMIN=  -22   IZMIN=  -43


 real space projection operators:
  total allocation   :      22449.02 KBytes
  max/ min on nodes  :       3750.87       3734.62


 parallel 3D FFT for wavefunctions:
    minimum data exchange during FFTs selected (reduces bandwidth)
 parallel 3D FFT for charge:
    minimum data exchange during FFTs selected (reduces bandwidth)


 total amount of memory used by VASP MPI-rank0   175092. kBytes
=======================================================================

   base      :      30000. kBytes
   nonlr-proj:      11804. kBytes
   fftplans  :       9317. kBytes
   grid      :      26149. kBytes
   one-center:        870. kBytes
   wavefun   :      96952. kBytes
 
     INWAV:  cpu time    8.6549: real time    8.7449
 Broyden mixing: mesh for mixing (old mesh)
   NGX = 55   NGY = 45   NGZ = 87
  (NGX  =168   NGY  =140   NGZ  =280)
  gives a total of 215325 points

 initial charge density was supplied:
 number of electron    1214.0000098 magnetization      -0.0000000
 keeping initial charge density in first step


--------------------------------------------------------------------------------------------------------


 Maximum index for non-local projection operator          432
 Maximum index for augmentation-charges          476 (set IRDMAX)


--------------------------------------------------------------------------------------------------------


 First call to EWALD:  gamma=   0.108
 Maximum number of real-space cells 3x 4x 2
 Maximum number of reciprocal cells 3x 2x 4

    FEWALD:  cpu time    0.0054: real time    0.0054


--------------------------------------- Iteration      1(   1)  ---------------------------------------


    POTLOK:  cpu time    0.2246: real time    0.2258
    SETDIJ:  cpu time    0.0221: real time    0.0222
     EDDAV:  cpu time   27.9748: real time   28.0900
       DOS:  cpu time    0.0007: real time    0.0007
    CHARGE:  cpu time    1.2259: real time    1.2302
    MIXING:  cpu time    0.0066: real time    0.0068
    --------------------------------------------
      LOOP:  cpu time   29.4548: real time   29.5758

 eigenvalue-minimisations  :  6272
 total energy-change (2. order) :-0.1377230E+04  (-0.1340069E+00)
 number of electron    1214.0000098 magnetization      -0.0000000
 augmentation part       74.0807759 magnetization      -0.0000000

 Broyden mixing:
  rms(total) = 0.94664E-01    rms(broyden)= 0.94585E-01
  rms(prec ) = 0.95892E-01
  weight for this iteration     100.00

 Free energy of the ion-electron system (eV)
  ---------------------------------------------------
  alpha Z        PSCENC =      2166.38705829
  Ewald energy   TEWEN  =    385773.39716153
  -Hartree energ DENC   =   -482955.30064824
  -exchange      EXHF   =         0.00000000
  -V(xc)+E(xc)   XCENC  =      5337.20636251
  PAW double counting   =    130125.56371090  -129448.62131927
  entropy T*S    EENTRO =        -0.00000000
  eigenvalues    EBANDS =    -18731.12880347
  atomic energy  EATOM  =    106355.26625530
  Solvation  Ediel_sol  =         0.00000000
  ---------------------------------------------------
  free energy    TOTEN  =     -1377.23022244 eV

  energy without entropy =    -1377.23022244  energy(sigma->0) =    -1377.23022244


--------------------------------------------------------------------------------------------------------




--------------------------------------- Iteration      1(   2)  ---------------------------------------


    POTLOK:  cpu time    0.2149: real time    0.2161
    SETDIJ:  cpu time    0.0216: real time    0.0217
     EDDAV:  cpu time   27.2973: real time   27.4410
       DOS:  cpu time    0.0007: real time    0.0007
    CHARGE:  cpu time    1.2222: real time    1.2269
    MIXING:  cpu time    0.0062: real time    0.0063
    --------------------------------------------
      LOOP:  cpu time   28.7629: real time   28.9126

 eigenvalue-minimisations  :  6080
 total energy-change (2. order) :-0.1743892E+01  (-0.1193536E+00)
 number of electron    1214.0000098 magnetization       0.0000000
 augmentation part       74.0064263 magnetization      -0.0000000

 Broyden mixing:
  rms(total) = 0.41156E-01    rms(broyden)= 0.41040E-01
  rms(prec ) = 0.43302E-01
  weight for this iteration     100.00

 eigenvalues of (default mixing * dielectric matrix)
  average eigenvalue GAMMA=   0.7344
  0.7344

 Free energy of the ion-electron system (eV)
  ---------------------------------------------------
  alpha Z        PSCENC =      2166.38705829
  Ewald energy   TEWEN  =    385773.39716153
  -Hartree energ DENC   =   -482956.43958851
  -exchange      EXHF   =         0.00000000
  -V(xc)+E(xc)   XCENC  =      5337.30413449
  PAW double counting   =    129983.12024607  -129305.13715210
  entropy T*S    EENTRO =        -0.00000000
  eigenvalues    EBANDS =    -18732.87222985
  atomic energy  EATOM  =    106355.26625530
  Solvation  Ediel_sol  =         0.00000000
  ---------------------------------------------------
  free energy    TOTEN  =     -1378.97411478 eV

  energy without entropy =    -1378.97411478  energy(sigma->0) =    -1378.97411478


--------------------------------------------------------------------------------------------------------




--------------------------------------- Iteration      1(   3)  ---------------------------------------


    POTLOK:  cpu time    0.2115: real time    0.2123
    SETDIJ:  cpu time    0.0218: real time    0.0218
     EDDAV:  cpu time   29.4774: real time   29.5983
       DOS:  cpu time    0.0006: real time    0.0006
    CHARGE:  cpu time    1.2179: real time    1.2227
    MIXING:  cpu time    0.0063: real time    0.0063
    --------------------------------------------
      LOOP:  cpu time   30.9355: real time   31.0619

 eigenvalue-minimisations  :  6720
 total energy-change (2. order) :-0.9748620E-02  (-0.4368908E-02)
 number of electron    1214.0000098 magnetization       0.0000000
 augmentation part       74.0384415 magnetization      -0.0000000

 Broyden mixing:
  rms(total) = 0.27537E-01    rms(broyden)= 0.27519E-01
  rms(prec ) = 0.27948E-01
  weight for this iteration     100.00

 eigenvalues of (default mixing * dielectric matrix)
  average eigenvalue GAMMA=   0.6920
  0.6920  0.6920

 Free energy of the ion-electron system (eV)
  ---------------------------------------------------
  alpha Z        PSCENC =      2166.38705829
  Ewald energy   TEWEN  =    385773.39716153
  -Hartree energ DENC   =   -482953.94711307
  -exchange      EXHF   =         0.00000000
  -V(xc)+E(xc)   XCENC  =      5337.10638227
  PAW double counting   =    130009.63276719  -129330.89899407
  entropy T*S    EENTRO =        -0.00000000
  eigenvalues    EBANDS =    -18735.92738083
  atomic energy  EATOM  =    106355.26625530
  Solvation  Ediel_sol  =         0.00000000
  ---------------------------------------------------
  free energy    TOTEN  =     -1378.98386340 eV

  energy without entropy =    -1378.98386340  energy(sigma->0) =    -1378.98386340


--------------------------------------------------------------------------------------------------------




--------------------------------------- Iteration      1(   4)  ---------------------------------------


    POTLOK:  cpu time    0.2131: real time    0.2146
    SETDIJ:  cpu time    0.0217: real time    0.0217
     EDDAV:  cpu time   25.9613: real time   26.0697
       DOS:  cpu time    0.0005: real time    0.0005
    CHARGE:  cpu time    1.2160: real time    1.2223
    MIXING:  cpu time    0.0066: real time    0.0066
    --------------------------------------------
      LOOP:  cpu time   27.4191: real time   27.5354

 eigenvalue-minimisations  :  5696
 total energy-change (2. order) :-0.5019715E-04  (-0.2135158E-03)
 number of electron    1214.0000098 magnetization      -0.0000000
 augmentation part       74.0343300 magnetization      -0.0000000

 Broyden mixing:
  rms(total) = 0.22254E-01    rms(broyden)= 0.22253E-01
  rms(prec ) = 0.22556E-01
  weight for this iteration     100.00

 eigenvalues of (default mixing * dielectric matrix)
  average eigenvalue GAMMA=   0.6843
  0.7702  0.7702  0.5124

 Free energy of the ion-electron system (eV)
  ---------------------------------------------------
  alpha Z        PSCENC =      2166.38705829
  Ewald energy   TEWEN  =    385773.39716153
  -Hartree energ DENC   =   -482954.69787792
  -exchange      EXHF   =         0.00000000
  -V(xc)+E(xc)   XCENC  =      5337.17476004
  PAW double counting   =    130038.83082166  -129360.04605759
  entropy T*S    EENTRO =        -0.00000000
  eigenvalues    EBANDS =    -18735.29603490
  atomic energy  EATOM  =    106355.26625530
  Solvation  Ediel_sol  =         0.00000000
  ---------------------------------------------------
  free energy    TOTEN  =     -1378.98391359 eV

  energy without entropy =    -1378.98391359  energy(sigma->0) =    -1378.98391359


--------------------------------------------------------------------------------------------------------




--------------------------------------- Iteration      1(   5)  ---------------------------------------


    POTLOK:  cpu time    0.2119: real time    0.2137
    SETDIJ:  cpu time    0.0216: real time    0.0217
     EDDAV:  cpu time   29.0922: real time   29.2107
       DOS:  cpu time    0.0006: real time    0.0006
    CHARGE:  cpu time    1.2181: real time    1.2224
    MIXING:  cpu time    0.0068: real time    0.0068
    --------------------------------------------
      LOOP:  cpu time   30.5512: real time   30.6758

 eigenvalue-minimisations  :  6592
 total energy-change (2. order) :-0.5691953E-05  (-0.1906481E-04)
 number of electron    1214.0000098 magnetization      -0.0000000
 augmentation part       74.0398427 magnetization      -0.0000000

 Broyden mixing:
  rms(total) = 0.18763E-01    rms(broyden)= 0.18763E-01
  rms(prec ) = 0.19019E-01
  weight for this iteration     100.00

 eigenvalues of (default mixing * dielectric matrix)
  average eigenvalue GAMMA=   0.7348
  0.9187  0.9187  0.5510  0.5510

 Free energy of the ion-electron system (eV)
  ---------------------------------------------------
  alpha Z        PSCENC =      2166.38705829
  Ewald energy   TEWEN  =    385773.39716153
  -Hartree energ DENC   =   -482954.77524119
  -exchange      EXHF   =         0.00000000
  -V(xc)+E(xc)   XCENC  =      5337.17885359
  PAW double counting   =    130056.45695196  -129377.63516994
  entropy T*S    EENTRO =        -0.00000000
  eigenvalues    EBANDS =    -18735.25978882
  atomic energy  EATOM  =    106355.26625530
  Solvation  Ediel_sol  =         0.00000000
  ---------------------------------------------------
  free energy    TOTEN  =     -1378.98391928 eV

  energy without entropy =    -1378.98391928  energy(sigma->0) =    -1378.98391928


--------------------------------------------------------------------------------------------------------




--------------------------------------- Iteration      1(   6)  ---------------------------------------


    POTLOK:  cpu time    0.2114: real time    0.2132
    SETDIJ:  cpu time    0.0215: real time    0.0216
     EDDAV:  cpu time   29.3753: real time   29.4984
       DOS:  cpu time    0.0006: real time    0.0006
    CHARGE:  cpu time    1.2106: real time    1.2149
    MIXING:  cpu time    0.0070: real time    0.0071
    --------------------------------------------
      LOOP:  cpu time   30.8263: real time   30.9556

 eigenvalue-minimisations  :  6688
 total energy-change (2. order) :-0.1264863E-04  (-0.2412361E-05)
 number of electron    1214.0000098 magnetization       0.0000000
 augmentation part       74.0413023 magnetization      -0.0000000

 Broyden mixing:
  rms(total) = 0.16047E-01    rms(broyden)= 0.16047E-01
  rms(prec ) = 0.16278E-01
  weight for this iteration     100.00

 eigenvalues of (default mixing * dielectric matrix)
  average eigenvalue GAMMA=   0.8020
  1.1363  1.1363  0.5237  0.6069  0.6069

 Free energy of the ion-electron system (eV)
  ---------------------------------------------------
  alpha Z        PSCENC =      2166.38705829
  Ewald energy   TEWEN  =    385773.39716153
  -Hartree energ DENC   =   -482954.90207929
  -exchange      EXHF   =         0.00000000
  -V(xc)+E(xc)   XCENC  =      5337.18733440
  PAW double counting   =    130071.68339632  -129392.84812496
  entropy T*S    EENTRO =        -0.00000000
  eigenvalues    EBANDS =    -18735.15493351
  atomic energy  EATOM  =    106355.26625530
  Solvation  Ediel_sol  =         0.00000000
  ---------------------------------------------------
  free energy    TOTEN  =     -1378.98393193 eV

  energy without entropy =    -1378.98393193  energy(sigma->0) =    -1378.98393193


--------------------------------------------------------------------------------------------------------




--------------------------------------- Iteration      1(   7)  ---------------------------------------


    POTLOK:  cpu time    0.2111: real time    0.2135
    SETDIJ:  cpu time    0.0214: real time    0.0215
     EDDAV:  cpu time   29.2825: real time   29.4019
       DOS:  cpu time    0.0007: real time    0.0007
    CHARGE:  cpu time    1.2205: real time    1.2248
    MIXING:  cpu time    0.0076: real time    0.0076
    --------------------------------------------
      LOOP:  cpu time   30.7439: real time   30.8700

 eigenvalue-minimisations  :  6656
 total energy-change (2. order) :-0.6070957E-05  (-0.2346300E-05)
 number of electron    1214.0000098 magnetization       0.0000000
 augmentation part       74.0426373 magnetization      -0.0000000

 Broyden mixing:
  rms(total) = 0.12848E-01    rms(broyden)= 0.12848E-01
  rms(prec ) = 0.13030E-01
  weight for this iteration     100.00

 eigenvalues of (default mixing * dielectric matrix)
  average eigenvalue GAMMA=   0.8683
  1.3574  1.3574  0.6939  0.6939  0.5536  0.5536

 Free energy of the ion-electron system (eV)
  ---------------------------------------------------
  alpha Z        PSCENC =      2166.38705829
  Ewald energy   TEWEN  =    385773.39716153
  -Hartree energ DENC   =   -482954.95081128
  -exchange      EXHF   =         0.00000000
  -V(xc)+E(xc)   XCENC  =      5337.19246814
  PAW double counting   =    130088.64948874  -129409.80063134
  entropy T*S    EENTRO =        -0.00000000
  eigenvalues    EBANDS =    -18735.12492738
  atomic energy  EATOM  =    106355.26625530
  Solvation  Ediel_sol  =         0.00000000
  ---------------------------------------------------
  free energy    TOTEN  =     -1378.98393800 eV

  energy without entropy =    -1378.98393800  energy(sigma->0) =    -1378.98393800


--------------------------------------------------------------------------------------------------------




--------------------------------------- Iteration      1(   8)  ---------------------------------------


    POTLOK:  cpu time    0.2115: real time    0.2133
    SETDIJ:  cpu time    0.0218: real time    0.0219
     EDDAV:  cpu time   27.2829: real time   27.3992
       DOS:  cpu time    0.0006: real time    0.0006
    CHARGE:  cpu time    1.2203: real time    1.2245
    MIXING:  cpu time    0.0077: real time    0.0078
    --------------------------------------------
      LOOP:  cpu time   28.7448: real time   28.8673

 eigenvalue-minimisations  :  6080
 total energy-change (2. order) :-0.4728761E-05  (-0.1785269E-05)
 number of electron    1214.0000098 magnetization       0.0000000
 augmentation part       74.0440941 magnetization      -0.0000000

 Broyden mixing:
  rms(total) = 0.10468E-01    rms(broyden)= 0.10468E-01
  rms(prec ) = 0.10609E-01
  weight for this iteration     100.00

 eigenvalues of (default mixing * dielectric matrix)
  average eigenvalue GAMMA=   0.9243
  1.5981  1.5981  0.7763  0.7763  0.5382  0.5915  0.5915

 Free energy of the ion-electron system (eV)
  ---------------------------------------------------
  alpha Z        PSCENC =      2166.38705829
  Ewald energy   TEWEN  =    385773.39716153
  -Hartree energ DENC   =   -482954.98691175
  -exchange      EXHF   =         0.00000000
  -V(xc)+E(xc)   XCENC  =      5337.19555348
  PAW double counting   =    130101.46097411  -129422.60233788
  entropy T*S    EENTRO =        -0.00000000
  eigenvalues    EBANDS =    -18735.10169581
  atomic energy  EATOM  =    106355.26625530
  Solvation  Ediel_sol  =         0.00000000
  ---------------------------------------------------
  free energy    TOTEN  =     -1378.98394273 eV

  energy without entropy =    -1378.98394273  energy(sigma->0) =    -1378.98394273


--------------------------------------------------------------------------------------------------------




--------------------------------------- Iteration      1(   9)  ---------------------------------------


    POTLOK:  cpu time    0.2113: real time    0.2120
    SETDIJ:  cpu time    0.0217: real time    0.0217
     EDDAV:  cpu time   20.8889: real time   20.9756
       DOS:  cpu time    0.0006: real time    0.0006
    CHARGE:  cpu time    1.2175: real time    1.2223
    MIXING:  cpu time    0.0081: real time    0.0081
    --------------------------------------------
      LOOP:  cpu time   22.3480: real time   22.4402

 eigenvalue-minimisations  :  4224
 total energy-change (2. order) :-0.4126327E-05  (-0.5070084E-06)
 number of electron    1214.0000098 magnetization       0.0000000
 augmentation part       74.0451214 magnetization      -0.0000000

 Broyden mixing:
  rms(total) = 0.88702E-02    rms(broyden)= 0.88702E-02
  rms(prec ) = 0.89918E-02
  weight for this iteration     100.00

 eigenvalues of (default mixing * dielectric matrix)
  average eigenvalue GAMMA=   1.0730
  2.1018  2.1018  0.9290  0.9290  0.6729  0.6729  0.5883  0.5883

 Free energy of the ion-electron system (eV)
  ---------------------------------------------------
  alpha Z        PSCENC =      2166.38705829
  Ewald energy   TEWEN  =    385773.39716153
  -Hartree energ DENC   =   -482955.00646530
  -exchange      EXHF   =         0.00000000
  -V(xc)+E(xc)   XCENC  =      5337.19696416
  PAW double counting   =    130110.08803551  -129431.22699039
  entropy T*S    EENTRO =        -0.00000000
  eigenvalues    EBANDS =    -18735.08596596
  atomic energy  EATOM  =    106355.26625530
  Solvation  Ediel_sol  =         0.00000000
  ---------------------------------------------------
  free energy    TOTEN  =     -1378.98394686 eV

  energy without entropy =    -1378.98394686  energy(sigma->0) =    -1378.98394686


--------------------------------------------------------------------------------------------------------




--------------------------------------- Iteration      1(  10)  ---------------------------------------


    POTLOK:  cpu time    0.2104: real time    0.2120
    SETDIJ:  cpu time    0.0218: real time    0.0218
     EDDAV:  cpu time   28.8390: real time   28.9564
       DOS:  cpu time    0.0007: real time    0.0007
    CHARGE:  cpu time    1.2155: real time    1.2228
    MIXING:  cpu time    0.0093: real time    0.0093
    --------------------------------------------
      LOOP:  cpu time   30.2966: real time   30.4229

 eigenvalue-minimisations  :  6528
 total energy-change (2. order) :-0.4933579E-05  (-0.2445297E-05)
 number of electron    1214.0000098 magnetization       0.0000000
 augmentation part       74.0463850 magnetization      -0.0000000

 Broyden mixing:
  rms(total) = 0.51452E-02    rms(broyden)= 0.51452E-02
  rms(prec ) = 0.52203E-02
  weight for this iteration     100.00

 eigenvalues of (default mixing * dielectric matrix)
[...]
   -.227E+03 -.119E+03 -.162E+04   0.218E+03 0.996E+02 0.161E+04   0.869E+01 0.191E+02 0.142E+02   0.728E-03 0.446E-03 0.394E-03
   -.214E+03 0.266E+03 -.171E+04   0.223E+03 -.279E+03 0.173E+04   -.902E+01 0.125E+02 -.121E+02   0.250E-04 0.120E-03 -.442E-03
   -.721E+02 -.728E+02 -.318E+03   0.754E+02 0.787E+02 0.323E+03   -.332E+01 -.586E+01 -.504E+01   0.146E-04 0.432E-04 0.103E-03
   0.466E+02 -.401E+02 -.226E+03   -.479E+02 0.439E+02 0.229E+03   0.126E+01 -.379E+01 -.368E+01   0.874E-04 -.299E-04 -.212E-04
   -.402E+02 0.459E+02 -.248E+03   0.434E+02 -.481E+02 0.252E+03   -.324E+01 0.217E+01 -.388E+01   -.162E-03 0.982E-04 -.253E-04
   0.942E+01 0.660E+02 -.183E+03   -.856E+01 -.702E+02 0.179E+03   -.862E+00 0.413E+01 0.354E+01   0.195E-04 0.429E-04 0.419E-04
   0.578E+01 0.672E+02 -.223E+03   -.510E+01 -.705E+02 0.219E+03   -.687E+00 0.328E+01 0.391E+01   -.125E-03 0.706E-04 0.232E-03
   0.728E+02 0.162E+02 -.191E+03   -.781E+02 -.163E+02 0.193E+03   0.533E+01 0.120E+00 -.134E+01   0.416E-04 0.237E-04 0.939E-05
   -.138E+02 0.332E+02 -.204E+03   0.166E+02 -.344E+02 0.208E+03   -.284E+01 0.116E+01 -.453E+01   0.209E-04 0.505E-04 -.238E-04
   0.422E+01 0.122E+02 -.237E+03   -.434E+01 -.149E+02 0.242E+03   0.125E+00 0.277E+01 -.512E+01   -.223E-04 -.435E-04 -.344E-04
   0.681E+02 -.126E+02 -.197E+03   -.711E+02 0.138E+02 0.193E+03   0.303E+01 -.127E+01 0.432E+01   0.757E-04 0.117E-04 0.684E-04
   0.764E+02 -.402E+02 -.211E+03   -.815E+02 0.421E+02 0.209E+03   0.515E+01 -.184E+01 0.166E+01   0.676E-05 -.658E-04 0.661E-04
   -.698E+02 -.353E+01 -.244E+03   0.744E+02 0.262E+01 0.247E+03   -.459E+01 0.897E+00 -.293E+01   -.154E-03 0.461E-04 -.312E-05
   -.513E+02 -.527E+02 -.237E+03   0.557E+02 0.547E+02 0.235E+03   -.443E+01 -.208E+01 0.213E+01   -.974E-05 0.702E-05 0.110E-03
   0.118E+02 -.614E+02 -.246E+03   -.130E+02 0.648E+02 0.250E+03   0.115E+01 -.343E+01 -.409E+01   -.764E-06 -.451E-04 0.437E-04
   0.505E+02 -.398E+02 -.227E+03   -.546E+02 0.403E+02 0.223E+03   0.407E+01 -.493E+00 0.377E+01   -.115E-04 0.235E-04 0.146E-03
   0.100E+03 0.124E+03 -.787E+03   -.100E+03 -.124E+03 0.786E+03   0.565E-02 -.156E-01 0.121E+00   0.171E-03 0.212E-03 0.633E-04
   0.248E+01 0.838E+02 -.933E+03   -.219E+01 -.805E+02 0.933E+03   -.305E+00 -.325E+01 -.530E+00   -.381E-03 0.295E-03 0.585E-03
   0.148E+03 -.294E+01 -.848E+03   -.149E+03 0.285E+01 0.848E+03   0.358E+00 0.842E-01 -.240E+00   0.523E-03 0.978E-04 0.837E-04
   0.941E+02 -.368E+02 -.920E+03   -.949E+02 0.384E+02 0.923E+03   0.896E+00 -.162E+01 -.276E+01   0.211E-04 -.119E-03 0.282E-03
   -.919E+02 -.856E+02 -.950E+03   0.937E+02 0.862E+02 0.950E+03   -.176E+01 -.525E+00 0.770E+00   0.158E-04 0.148E-03 0.510E-03
   0.202E+01 -.179E+03 -.946E+03   -.276E+01 0.180E+03 0.947E+03   0.733E+00 -.394E+00 -.273E+00   0.111E-04 -.224E-03 0.565E-03
 -----------------------------------------------------------------------------------------------
   0.125E+02 0.148E+01 0.769E+02   0.584E-12 -.341E-12 -.853E-11   -.128E+02 -.156E+01 -.770E+02   0.777E-03 0.254E-02 0.365E-01
 
 
 POSITION                                       TOTAL-FORCE (eV/Angst)
 -----------------------------------------------------------------------------------
      0.99046      3.89727      0.91670        -1.489681     -1.856992     -0.683292
      4.22806      9.97101      0.91670        -1.485486     -1.878183     -0.740412
      8.54576      3.89727      0.91670        -1.345982     -1.926188     -0.752457
     11.78336      9.97101      0.91670        -1.355151     -1.842710     -0.749392
      0.16045     10.12553      1.16818        -0.233019      1.665102      0.337239
      4.47815      4.05179      1.16818        -0.185756      1.716106      0.230390
      7.71575     10.12553      1.16818        -0.102887      1.764838      0.192228
     12.03345      4.05179      1.16818        -0.144157      1.821084      0.532574
      3.52055      0.82336      1.36715        -0.837641     -0.878027      1.570008
      6.75815      6.89709      1.36715        -0.825832     -0.883802      1.564058
     11.07585      0.82336      1.36715        -0.766390     -0.804579      1.741627
     14.31345      6.89709      1.36715        -0.968729     -0.970178      1.791387
      2.69053      7.05173      1.61862         1.475797      0.465208     -2.481413
      7.00822      0.97799      1.61862         1.587693      0.454413     -2.477579
     10.24583      7.05173      1.61862         1.743481      0.374530     -2.438942
     14.56352      0.97799      1.61862         1.518488      0.507457     -2.448325
      0.53954     11.94257      4.09814        -0.001325     -0.002477      0.002310
      4.86176      5.87748      4.10241        -0.001944      0.003330      0.000011
      8.11969     11.96281      4.10600         0.002000     -0.000517      0.001726
     12.40264      5.86142      4.15297        -0.001842      0.004786     -0.002989
      0.81552      6.01258      4.37507         0.001147      0.005509      0.001413
      4.04941     12.08932      4.37092        -0.003263      0.000531     -0.000869
      8.37086      5.98823      4.36536        -0.003548     -0.001469      0.005214
     11.59820     12.09812      4.37958        -0.000617      0.000927      0.002419
     -0.17893      2.80040      4.58824         0.000059      0.001719      0.001956
      3.03689      8.86827      4.58594         0.001075      0.002194     -0.000097
      7.36933      2.78489      4.57912        -0.000172      0.001168      0.001488
     10.65280      8.87182      4.57615         0.002463     -0.001065     -0.000443
      3.35987      2.94213      4.81463         0.001162      0.000169     -0.002998
      6.57367      9.02607      4.79257        -0.000854     -0.001932      0.000754
     10.93331      2.98726      4.89330         0.002096      0.003858     -0.000357
     14.14030      8.99721      4.83961        -0.001080     -0.000222      0.002216
      1.16349      7.79435      7.52896         0.005496      0.000681     -0.003026
      5.46016      1.70684      7.50644        -0.000093     -0.002365     -0.000980
      8.72088      7.86370      7.31759        -0.002100      0.000588      0.001882
     13.05604      1.70421      7.52764        -0.003378     -0.000873     -0.000976
      1.47969      1.95990      7.48981        -0.000590      0.000951      0.002486
      4.69795      8.02060      7.49408         0.001240     -0.001838      0.002244
      8.98610      1.93420      7.52559         0.000850     -0.001898     -0.002007
     12.25947      8.03747      7.61341        -0.000631      0.000932      0.005050
     -0.56307     10.80426      7.77261         0.000166      0.000937      0.002357
      3.73836      4.72565      7.80265         0.002588     -0.002350     -0.003137
      6.96067     10.78477      7.77925        -0.000328     -0.002625      0.004039
     11.40218      4.67442      8.01978         0.003271     -0.000061     -0.001086
     -0.27319      4.94923      8.04363         0.003286      0.000162     -0.002355
      2.92515     11.02227      8.05602        -0.001079     -0.001814      0.000841
      7.22897      4.88241      8.01797         0.001948     -0.003176      0.006216
     10.49369     11.03783      8.06093         0.002380     -0.003671      0.001054
      9.92663      6.68325     10.17148         0.002653     -0.006434      0.002259
      0.18233      2.09605      0.00000         0.271912      0.965525      1.261302
      3.41993      8.16979      0.00000         0.289182      0.993246      1.261210
      7.73763      2.09605      0.00000         0.255661      0.972599      1.273852
     10.97523      8.16979      0.00000         0.249049      0.998669      1.272016
      2.77584      5.24249      0.37900        -0.000804     -0.931841      0.578526
      6.01345     11.31622      0.37900        -0.036161     -0.931363      0.579365
     10.33114      5.24249      0.37900        -0.108103     -0.924957      0.568302
     13.56875     11.31622      0.37900        -0.044910     -0.928096      0.565474
      2.16153     10.82255      0.59691         0.409639      1.205611     -0.193666
      6.47922      4.74881      0.59691         0.388434      1.218129     -0.195906
      9.71683     10.82255      0.59691         0.351806      1.179796     -0.197191
     14.03452      4.74881      0.59691         0.406215      1.169405     -0.222927
      2.73983      2.74654      1.05910         1.190169     -1.030615     -0.433647
      5.97744      8.82028      1.05910         1.166027     -1.051791     -0.411819
     10.29513      2.74654      1.05910         1.118198     -1.027663     -0.465611
     13.53273      8.82028      1.05910         1.136000     -1.004325     -0.460003
      0.94100      8.20246      1.47622        -1.100443     -0.293971     -0.907254
      5.25870      2.12872      1.47622        -1.123482     -0.309235     -0.899991
      8.49630      8.20246      1.47622        -1.189842     -0.310817     -0.896358
     12.81400      2.12872      1.47622        -1.135769     -0.332542     -0.915123
      1.51931      0.12646      1.93841         0.370166     -0.060217      0.214382
      4.75691      6.20019      1.93841         0.425637     -0.018035      0.220970
      9.07461      0.12646      1.93841         0.408195     -0.024911      0.244814
     12.31221      6.20019      1.93841         0.350493     -0.090645      0.347090
      0.90515      5.70640      2.15632        -0.360336      0.323672      0.101861
      4.14276     11.78014      2.15632        -0.348695      0.324290      0.163053
      8.46045      5.70640      2.15632        -0.422968      0.305668      0.183923
     11.69806     11.78014      2.15632        -0.399836      0.321097      0.173057
      0.26091      2.77910      2.53532         0.213373      0.404174      0.500254
      3.49852      8.85284      2.53532         0.238364      0.434233      0.595451
      7.81621      2.77910      2.53532         0.221031      0.407202      0.512636
     11.05382      8.85284      2.53532         0.265539      0.442335      0.475553
     -0.21497     10.12098      3.20177         0.001829     -0.000178      0.003929
      4.12051      4.05462      3.20176        -0.003289      0.010866      0.000032
      7.35430     10.13275      3.19867         0.001917      0.002757      0.004446
     11.66730      4.03999      3.21305         0.002045      0.002049     -0.000538
      3.39756      1.13545      3.50553         0.001375      0.000364      0.003254
      6.63533      7.21059      3.51631         0.001289     -0.002733     -0.003596
     10.95475      1.14017      3.52252         0.002586      0.003276      0.005941
     14.19405      7.20902      3.52077        -0.007611     -0.015984     -0.014831
      2.81343      6.70912      3.84689         0.001077      0.002269      0.000291
      7.14018      0.62495      3.85273         0.008177      0.007235     -0.001975
     10.35862      6.70720      3.84807        -0.004245     -0.001865     -0.006787
     14.67805      0.63793      3.85454         0.003663      0.000115     -0.003589
      2.28710     10.81638      4.34128         0.000746     -0.001405      0.003133
      6.59919      4.73445      4.33362         0.000582     -0.002002     -0.000890
      9.84349     10.80735      4.34441        -0.023751     -0.008892     -0.004393
     14.16437      4.74579      4.36696         0.001625     -0.009973     -0.011893
      1.60195      4.06970      4.60817         0.003073      0.002652      0.000517
      4.82429     10.14717      4.63934        -0.003355      0.000571     -0.002892
      9.13012      4.07098      4.65821        -0.002145     -0.006200     -0.001010
     12.38760     10.16512      4.64652         0.001217     -0.001440     -0.002385
      1.05106      8.15721      5.13646        -0.000685      0.003045      0.003099
      5.36733      2.06670      5.11312         0.001317     -0.001431     -0.009678
      8.61890      8.15030      5.12210         0.000391     -0.003660      0.001593
     12.93028      2.07638      5.18058        -0.002097     -0.000668      0.004829
      1.60555      1.58548      5.36782         0.012646      0.002369      0.000122
      4.81686      7.66784      5.37022         0.000240     -0.002696     -0.003604
      9.15158      1.59960      5.40121        -0.004993      0.001156      0.006120
     12.37367      7.67982      5.38103        -0.004715     -0.000636     -0.001983
     -0.25558     10.85926      5.74687        -0.000112     -0.000255      0.001956
      4.06171      4.81202      5.77012         0.002835      0.000076      0.002661
      7.30323     10.85975      5.75406         0.008587     -0.000218     -0.000740
     11.59616      4.79024      5.78093        -0.000347      0.008878      0.004298
      0.53765      5.98265      6.44216         0.002526      0.000983      0.001494
      3.68599     12.06057      6.43558        -0.005923      0.000446      0.002621
      7.95401      5.99900      6.44100         0.001985     -0.001968      0.007476
     11.18156     12.07903      6.43658         0.002433     -0.000915     -0.001307
      2.97876      9.11468      6.77521        -0.002251     -0.000990     -0.000973
      7.24835      3.04516      6.74800        -0.007081     -0.013000     -0.004059
     10.52878      9.09792      6.78105        -0.004371      0.000038      0.005032
     -0.19306      3.05548      6.74431        -0.001489     -0.004698     -0.002633
      3.47969      2.60786      6.98038         0.005030     -0.000138     -0.000119
      6.69553      8.65901      6.95796         0.004897      0.002614      0.005749
     11.00581      2.62896      7.10974        -0.001332      0.000455     -0.010910
     14.26044      8.65284      7.01731        -0.000614     -0.010272     -0.002281
      3.01190      6.73932      7.89330        -0.006263     -0.005087      0.009305
      7.28443      0.64246      7.83338         0.001380      0.000012     -0.006044
     10.45375      6.70259      7.87092        -0.006129      0.012992      0.011062
     14.88472      0.67949      7.87061         0.005988     -0.004075     -0.003507
      2.21077      0.04825      7.92596         0.001189      0.001945      0.000612
      5.46746      6.13946      8.02440        -0.002017      0.000974      0.002374
      9.71453      0.01391      8.01483         0.000192     -0.003076     -0.007335
     13.01560      6.07860      7.81982         0.006032      0.003451     -0.000617
      1.73105      3.90367      8.42777        -0.005400      0.005948     -0.004888
      4.93989      9.95937      8.41786         0.003834     -0.002050      0.002347
      8.99661      3.79239      8.51525         0.001139     -0.002667     -0.000431
     12.54031     10.13390      8.29369         0.004270      0.005383     -0.000313
      1.12572      9.71978      8.53882         0.003354     -0.000519      0.004196
      5.42902      3.64112      8.52563         0.006953     -0.000303     -0.001766
      8.63718      9.65461      8.49459         0.000837      0.001414     -0.001049
     13.14567      3.58037      8.52911         0.000466      0.001866      0.000041
      0.39967      6.61476      8.98316        -0.000182      0.002986     -0.002735
      4.71928      0.52885      8.98032        -0.003867      0.000670      0.007854
      8.12652      6.64365      9.03869        -0.001690     -0.001732     -0.008882
     12.27550      0.52634      8.98923        -0.007371     -0.000898     -0.002264
     11.56788      8.06257      9.69264        -0.005229     -0.004589     -0.003374
     11.06668      5.11759     10.01602        -0.009292      0.018340      0.012025
     11.94623      8.73786     10.27504         0.024833      0.031526      0.028211
      6.82032      6.17939     12.92190         0.009944     -0.004442      0.003291
      9.18059      5.04605     12.58447         0.000718     -0.012987     -0.009318
      6.82777      3.23135     12.02946        -0.003782     -0.003835     -0.024710
      8.70367      4.82865     10.90425        -0.002414     -0.014482     -0.001511
      5.58271      4.03392     13.01103        -0.005606     -0.000411     -0.020995
      7.22583      3.82461     13.65534        -0.010305     -0.016036     -0.023886
      8.84728      7.02116     13.40122         0.008145     -0.011837     -0.006542
      6.45473      5.65337     11.28528        -0.009378      0.002299     -0.015040
      7.88802      7.90334     12.12039        -0.015365      0.000490      0.009229
     10.91058      8.11600     12.64478         0.008026     -0.014875     -0.014148
     10.74929     10.12372     11.09463        -0.005696     -0.022540     -0.000855
      9.59693     10.41040     12.38449        -0.014011      0.006002      0.003478
      9.02245      9.80933     10.81438        -0.007029     -0.011745      0.005984
      6.64951      4.04753     12.74427        -0.004983     -0.005428     -0.031554
      8.53757      5.47413     11.80100        -0.003158     -0.003612     -0.006950
      7.06508      5.40787     12.17167        -0.010112     -0.001137     -0.006654
      8.86993      7.54500     12.44659         0.030557     -0.016400      0.019069
      9.99670      8.29760     12.06490        -0.016931     -0.006054     -0.008226
      9.83046      9.72158     11.55606        -0.004855     -0.001840      0.011081
 -----------------------------------------------------------------------------------
    total drift:                               -0.251463     -0.071783     -0.056239


--------------------------------------------------------------------------------------------------------



  FREE ENERGIE OF THE ION-ELECTRON SYSTEM (eV)
  ---------------------------------------------------
  free  energy   TOTEN  =     -1398.37052761 eV

  energy  without entropy=    -1398.37052761  energy(sigma->0) =    -1398.37052761
 


--------------------------------------------------------------------------------------------------------


    POTLOK:  cpu time    0.2425: real time    0.2441


--------------------------------------------------------------------------------------------------------


 Dimer: Init Mode:
 Dimer: MODECAR found
 Dimer: -----------------
 Dimer: Itr    1 Rot    0

 Dimer: Central Point
 Dimer: F0      0.129031

 Dimer: Projection
 Dimer: N*F0 -4.485279123507561E-003
 Dimer: F0sq  1.664890397339983E-002
 Dimer: Feffsq   2.011772881577275E-005
 
 stress matrix after NEB project (eV)
    -55.18351    -24.74117      0.43974
    -24.74117    -72.31121     -1.01858
      0.43974     -1.01858     -9.62730
  FORCES: max atom, RMS     0.049055    0.009985
  FORCE total and by dimension    0.129031    0.031554
  Stress total and by dimension   97.946556   72.311208
 OPT: skip step - force has converged
 writing wavefunctions
     LOOP+:  cpu time  381.0789: real time  383.0739
    4ORBIT:  cpu time    0.0000: real time    0.0000

 total amount of memory used by VASP MPI-rank0   175092. kBytes
=======================================================================

   base      :      30000. kBytes
   nonlr-proj:      11804. kBytes
   fftplans  :       9317. kBytes
   grid      :      26149. kBytes
   one-center:        870. kBytes
   wavefun   :      96952. kBytes
 
  
  
 General timing and accounting informations for this job:
 ========================================================
  
                  Total CPU time used (sec):      410.831
                            User time (sec):      386.300
                          System time (sec):       24.531
                         Elapsed time (sec):      413.381
  
                   Maximum memory used (kb):      440272.
                   Average memory used (kb):           0.
  
                          Minor page faults:        92350
                          Major page faults:            0
                 Voluntary context switches:         1064
