       N       E                     dE             d eps       ncg     rms          rms(c)
DAV:   1    -0.132789821318E+04   -0.13279E+04   -0.13073E+00  6304   0.973E-01    0.948E-01
DAV:   2    -0.132964585267E+04   -0.17476E+01   -0.11661E+00  6240   0.945E-01    0.404E-01
DAV:   3    -0.132965570268E+04   -0.98500E-02   -0.40352E-02  6720   0.224E-01    0.275E-01
DAV:   4    -0.132965573799E+04   -0.35303E-04   -0.20529E-03  5568   0.563E-02    0.223E-01
DAV:   5    -0.132965574392E+04   -0.59341E-05   -0.20224E-04  6848   0.181E-02    0.187E-01
DAV:   6    -0.132965575485E+04   -0.10932E-04   -0.23719E-05  6848   0.714E-03    0.162E-01
DAV:   7    -0.132965576211E+04   -0.72539E-05   -0.23337E-05  6976   0.798E-03    0.130E-01
DAV:   8    -0.132965576794E+04   -0.58333E-05   -0.17232E-05  6912   0.648E-03    0.106E-01
DAV:   9    -0.132965577321E+04   -0.52701E-05   -0.56945E-06  7168   0.361E-03    0.892E-02
DAV:  10    -0.132965577907E+04   -0.58614E-05   -0.14457E-05  6720   0.636E-03    0.588E-02
DAV:  11    -0.132965578319E+04   -0.41144E-05   -0.35384E-05  6560   0.967E-03    0.180E-02
DAV:  12    -0.132965578429E+04   -0.11002E-05   -0.49200E-06  7104   0.279E-03    0.131E-02
DAV:  13    -0.132965578447E+04   -0.18098E-06   -0.98563E-07  6368   0.158E-03    0.653E-03
DAV:  14    -0.132965578446E+04    0.44383E-08   -0.58696E-07  7056   0.107E-03    0.306E-03
DAV:  15    -0.132965578440E+04    0.63417E-07   -0.56317E-08  4752   0.353E-04    0.144E-03
DAV:  16    -0.132965578436E+04    0.37471E-07   -0.20588E-08  3200   0.254E-04    0.616E-04
DAV:  17    -0.132965578435E+04    0.17215E-07   -0.16863E-08  3136   0.169E-04    0.470E-04
DAV:  18    -0.132965578434E+04    0.68685E-08   -0.54490E-09  3136   0.101E-04
   1 F= -.13485815E+04 E0= -.13485815E+04  d E =-.134858E+04  mag=    -0.0000
       N       E                     dE             d eps       ncg     rms          rms(c)
DAV:   1    -0.132965499172E+04    0.79262E-03   -0.58260E-01  5120   0.838E-01    0.107E-01
DAV:   2    -0.132965529604E+04   -0.30432E-03   -0.48039E-03  5504   0.748E-02    0.693E-02
DAV:   3    -0.132965523983E+04    0.56215E-04   -0.49882E-04  6400   0.346E-02    0.319E-02
DAV:   4    -0.132965523890E+04    0.92530E-06   -0.10614E-04  5760   0.156E-02    0.142E-02
DAV:   5    -0.132965523638E+04    0.25151E-05   -0.29800E-05  5984   0.819E-03    0.690E-03
DAV:   6    -0.132965523590E+04    0.48059E-06   -0.41404E-06  5760   0.265E-03    0.373E-03
DAV:   7    -0.132965523576E+04    0.14051E-06   -0.24776E-06  6464   0.241E-03    0.192E-03
DAV:   8    -0.132965523575E+04    0.16342E-07   -0.41434E-07  5952   0.109E-03    0.111E-03
DAV:   9    -0.132965523586E+04   -0.11269E-06   -0.16467E-07  5856   0.749E-04    0.521E-04
DAV:  10    -0.132965523602E+04   -0.16198E-06   -0.74670E-08  5216   0.569E-04    0.434E-04
DAV:  11    -0.132965523623E+04   -0.20853E-06   -0.56841E-08  4960   0.472E-04    0.227E-04
DAV:  12    -0.132965523644E+04   -0.21032E-06   -0.30268E-08  4336   0.305E-04    0.183E-04
DAV:  13    -0.132965523657E+04   -0.12829E-06   -0.10921E-08  3680   0.171E-04    0.127E-04
DAV:  14    -0.132965523670E+04   -0.13084E-06   -0.72447E-09  3360   0.108E-04    0.697E-05
DAV:  15    -0.132965523684E+04   -0.13650E-06   -0.71196E-09  3296   0.847E-05    0.524E-05
DAV:  16    -0.132965523690E+04   -0.59896E-07   -0.28742E-09  3136   0.554E-05    0.373E-05
DAV:  17    -0.132965523696E+04   -0.60871E-07   -0.29397E-09  3072   0.533E-05    0.250E-05
DAV:  18    -0.132965523699E+04   -0.30937E-07   -0.14875E-09  3072   0.383E-05    0.296E-05
DAV:  19    -0.132965523700E+04   -0.13650E-07   -0.63649E-10  3072   0.282E-05    0.168E-05
DAV:  20    -0.132965523701E+04   -0.11569E-07   -0.50540E-10  3072   0.285E-05    0.171E-05
DAV:  21    -0.132965523702E+04   -0.52241E-08   -0.15863E-10  3008   0.186E-05
   2 F= -.13485812E+04 E0= -.13485812E+04  d E =0.338369E-03  mag=    -0.0000
       N       E                     dE             d eps       ncg     rms          rms(c)
DAV:   1    -0.132965453361E+04    0.70340E-03   -0.11612E+00  5120   0.118E+00    0.125E-01
DAV:   2    -0.132965524071E+04   -0.70710E-03   -0.97196E-03  5536   0.101E-01    0.744E-02
DAV:   3    -0.132965515690E+04    0.83813E-04   -0.78964E-04  6368   0.345E-02    0.396E-02
DAV:   4    -0.132965513795E+04    0.18946E-04   -0.19365E-04  5568   0.198E-02    0.150E-02
DAV:   5    -0.132965513669E+04    0.12644E-05   -0.45115E-05  5504   0.946E-03    0.933E-03
DAV:   6    -0.132965513661E+04    0.78508E-07   -0.90503E-06  6816   0.330E-03    0.531E-03
DAV:   7    -0.132965513627E+04    0.33410E-06   -0.25872E-06  6560   0.236E-03    0.284E-03
DAV:   8    -0.132965513629E+04   -0.21435E-07   -0.58577E-07  6240   0.124E-03    0.152E-03
DAV:   9    -0.132965513642E+04   -0.12630E-06   -0.27433E-07  6176   0.812E-04    0.598E-04
DAV:  10    -0.132965513666E+04   -0.24217E-06   -0.55534E-08  4736   0.426E-04    0.364E-04
DAV:  11    -0.132965513698E+04   -0.31354E-06   -0.38063E-08  4544   0.386E-04    0.235E-04
DAV:  12    -0.132965513724E+04   -0.26809E-06   -0.33336E-08  4416   0.283E-04    0.134E-04
DAV:  13    -0.132965513743E+04   -0.18733E-06   -0.71261E-09  3328   0.136E-04    0.924E-05
DAV:  14    -0.132965513758E+04   -0.14798E-06   -0.74240E-09  3296   0.995E-05    0.513E-05
DAV:  15    -0.132965513767E+04   -0.94966E-07   -0.45011E-09  3168   0.703E-05    0.394E-05
DAV:  16    -0.132965513774E+04   -0.61438E-07   -0.33791E-09  3072   0.507E-05    0.284E-05
DAV:  17    -0.132965513776E+04   -0.22628E-07   -0.15266E-09  3072   0.406E-05    0.177E-05
DAV:  18    -0.132965513778E+04   -0.19863E-07   -0.16262E-09  3072   0.365E-05    0.261E-05
DAV:  19    -0.132965513778E+04   -0.15425E-08   -0.36474E-10  3072   0.264E-05
   3 F= -.13485809E+04 E0= -.13485809E+04  d E =0.260864E-03  mag=     0.0000
       N       E                     dE             d eps       ncg     rms          rms(c)
DAV:   1    -0.132965453746E+04    0.60031E-03   -0.11529E+00  5120   0.119E+00    0.140E-01
DAV:   2    -0.132965511598E+04   -0.57852E-03   -0.99604E-03  5600   0.112E-01    0.101E-01
DAV:   3    -0.132965497527E+04    0.14071E-03   -0.10952E-03  6240   0.496E-02    0.496E-02
DAV:   4    -0.132965497285E+04    0.24236E-05   -0.21825E-04  6112   0.214E-02    0.201E-02
DAV:   5    -0.132965496776E+04    0.50867E-05   -0.60713E-05  5664   0.135E-02    0.908E-03
DAV:   6    -0.132965496742E+04    0.34168E-06   -0.82566E-06  5536   0.413E-03    0.448E-03
DAV:   7    -0.132965496759E+04   -0.17149E-06   -0.37042E-06  6608   0.295E-03    0.285E-03
DAV:   8    -0.132965496777E+04   -0.18127E-06   -0.67466E-07  6336   0.133E-03    0.144E-03
DAV:   9    -0.132965496840E+04   -0.62774E-06   -0.37071E-07  6208   0.124E-03    0.774E-04
DAV:  10    -0.132965496910E+04   -0.70310E-06   -0.17689E-07  6000   0.773E-04    0.625E-04
DAV:  11    -0.132965496970E+04   -0.59044E-06   -0.83217E-08  5504   0.487E-04    0.295E-04
DAV:  12    -0.132965497048E+04   -0.78564E-06   -0.47716E-08  4416   0.471E-04    0.232E-04
DAV:  13    -0.132965497093E+04   -0.44830E-06   -0.41552E-08  4448   0.261E-04    0.189E-04
DAV:  14    -0.132965497122E+04   -0.29545E-06   -0.10680E-08  3536   0.123E-04    0.100E-04
DAV:  15    -0.132965497153E+04   -0.30166E-06   -0.10645E-08  3440   0.908E-05    0.651E-05
DAV:  16    -0.132965497166E+04   -0.13725E-06   -0.39312E-09  3184   0.627E-05    0.434E-05
DAV:  17    -0.132965497183E+04   -0.16449E-06   -0.79109E-09  3440   0.721E-05    0.536E-05
DAV:  18    -0.132965497187E+04   -0.45417E-07   -0.16798E-09  3136   0.511E-05    0.350E-05
DAV:  19    -0.132965497191E+04   -0.32960E-07   -0.16027E-09  3072   0.463E-05    0.323E-05
DAV:  20    -0.132965497192E+04   -0.17608E-07   -0.59517E-10  3072   0.357E-05    0.238E-05
DAV:  21    -0.132965497194E+04   -0.11336E-07   -0.32841E-10  3072   0.268E-05    0.108E-05
DAV:  22    -0.132965497194E+04   -0.37544E-08   -0.36609E-11  2944   0.184E-05
   4 F= -.13485811E+04 E0= -.13485811E+04  d E =-.138747E-03  mag=     0.0000
       N       E                     dE             d eps       ncg     rms          rms(c)
DAV:   1    -0.132965447321E+04    0.49872E-03   -0.11599E+00  5120   0.118E+00    0.166E-01
DAV:   2    -0.132965529031E+04   -0.81710E-03   -0.11722E-02  5632   0.113E-01    0.113E-01
DAV:   3    -0.132965512482E+04    0.16549E-03   -0.10062E-03  6304   0.436E-02    0.565E-02
DAV:   4    -0.132965511389E+04    0.10935E-04   -0.28066E-04  6272   0.223E-02    0.201E-02
DAV:   5    -0.132965511146E+04    0.24330E-05   -0.46183E-05  6304   0.922E-03    0.110E-02
DAV:   6    -0.132965510930E+04    0.21599E-05   -0.55122E-06  5760   0.373E-03    0.567E-03
DAV:   7    -0.132965510840E+04    0.89995E-06   -0.41921E-06  6816   0.337E-03    0.193E-03
DAV:   8    -0.132965510828E+04    0.11436E-06   -0.90046E-07  6048   0.166E-03    0.117E-03
DAV:   9    -0.132965510846E+04   -0.17422E-06   -0.33473E-07  6784   0.124E-03    0.800E-04
DAV:  10    -0.132965510895E+04   -0.49156E-06   -0.21665E-07  6064   0.115E-03    0.500E-04
DAV:  11    -0.132965510964E+04   -0.69324E-06   -0.21549E-07  5760   0.857E-04    0.352E-04
DAV:  12    -0.132965511013E+04   -0.48555E-06   -0.71607E-08  4960   0.337E-04    0.291E-04
DAV:  13    -0.132965511048E+04   -0.35393E-06   -0.11937E-08  3408   0.139E-04    0.169E-04
DAV:  14    -0.132965511100E+04   -0.51527E-06   -0.24597E-08  3936   0.138E-04    0.109E-04
DAV:  15    -0.132965511127E+04   -0.27026E-06   -0.70615E-09  3296   0.888E-05    0.606E-05
DAV:  16    -0.132965511152E+04   -0.25632E-06   -0.97164E-09  3520   0.805E-05    0.449E-05
DAV:  17    -0.132965511166E+04   -0.13824E-06   -0.43541E-09  3136   0.780E-05    0.302E-05
DAV:  18    -0.132965511173E+04   -0.74622E-07   -0.43155E-09  3136   0.720E-05    0.299E-05
DAV:  19    -0.132965511176E+04   -0.23196E-07   -0.15861E-09  3136   0.528E-05    0.246E-05
DAV:  20    -0.132965511178E+04   -0.25640E-07   -0.12468E-09  3072   0.389E-05    0.174E-05
DAV:  21    -0.132965511179E+04   -0.62137E-08   -0.41923E-10  3072   0.288E-05
   5 F= -.13485809E+04 E0= -.13485809E+04  d E =0.219613E-03  mag=    -0.0000
       N       E                     dE             d eps       ncg     rms          rms(c)
DAV:   1    -0.132965445231E+04    0.65948E-03   -0.11746E+00  5120   0.104E+00    0.102E-01
DAV:   2    -0.132965470449E+04   -0.25218E-03   -0.55213E-03  5664   0.743E-02    0.620E-02
DAV:   3    -0.132965461286E+04    0.91624E-04   -0.55455E-04  6208   0.246E-02    0.200E-02
DAV:   4    -0.132965461614E+04   -0.32812E-05   -0.86112E-05  6112   0.885E-03    0.135E-02
DAV:   5    -0.132965461504E+04    0.11035E-05   -0.71814E-06  6144   0.321E-03    0.547E-03
DAV:   6    -0.132965461487E+04    0.16815E-06   -0.17188E-06  6688   0.212E-03    0.147E-03
DAV:   7    -0.132965461495E+04   -0.80167E-07   -0.31498E-07  6240   0.764E-04    0.101E-03
DAV:   8    -0.132965461511E+04   -0.15658E-06   -0.68798E-08  5120   0.356E-04    0.678E-04
DAV:   9    -0.132965461534E+04   -0.23270E-06   -0.48868E-08  4544   0.347E-04    0.272E-04
DAV:  10    -0.132965461550E+04   -0.15837E-06   -0.29263E-08  4352   0.250E-04    0.169E-04
DAV:  11    -0.132965461565E+04   -0.15117E-06   -0.65203E-09  3328   0.105E-04    0.111E-04
DAV:  12    -0.132965461583E+04   -0.17870E-06   -0.96739E-09  3584   0.861E-05    0.715E-05
DAV:  13    -0.132965461591E+04   -0.80603E-07   -0.33075E-09  3136   0.667E-05    0.443E-05
DAV:  14    -0.132965461598E+04   -0.67375E-07   -0.43858E-09  3264   0.622E-05    0.363E-05
DAV:  15    -0.132965461601E+04   -0.29831E-07   -0.16141E-09  3136   0.493E-05    0.251E-05
DAV:  16    -0.132965461603E+04   -0.27474E-07   -0.18577E-09  3136   0.473E-05    0.222E-05
DAV:  17    -0.132965461604E+04   -0.86438E-08   -0.75471E-10  3072   0.364E-05
   6 F= -.13485801E+04 E0= -.13485801E+04  d E =0.715032E-03  mag=     0.0000
       N       E                     dE             d eps       ncg     rms          rms(c)
DAV:   1    -0.132965410211E+04    0.51392E-03   -0.11775E+00  5120   0.105E+00    0.142E-01
DAV:   2    -0.132965443659E+04   -0.33448E-03   -0.66576E-03  5664   0.831E-02    0.963E-02
DAV:   3    -0.132965434136E+04    0.95227E-04   -0.90617E-04  6400   0.399E-02    0.302E-02
DAV:   4    -0.132965434817E+04   -0.68047E-05   -0.14666E-04  6080   0.138E-02    0.184E-02
DAV:   5    -0.132965434451E+04    0.36551E-05   -0.17915E-05  6048   0.552E-03    0.852E-03
DAV:   6    -0.132965434276E+04    0.17516E-05   -0.47009E-06  6336   0.360E-03    0.358E-03
DAV:   7    -0.132965434221E+04    0.55252E-06   -0.14035E-06  6640   0.180E-03    0.140E-03
DAV:   8    -0.132965434218E+04    0.26499E-07   -0.39631E-07  6640   0.112E-03    0.101E-03
DAV:   9    -0.132965434232E+04   -0.13840E-06   -0.16252E-07  5792   0.116E-03    0.504E-04
DAV:  10    -0.132965434271E+04   -0.38451E-06   -0.22217E-07  5856   0.112E-03    0.357E-04
DAV:  11    -0.132965434333E+04   -0.62528E-06   -0.17156E-07  5440   0.571E-04    0.341E-04
DAV:  12    -0.132965434375E+04   -0.41627E-06   -0.34718E-08  4256   0.261E-04    0.183E-04
DAV:  13    -0.132965434417E+04   -0.42086E-06   -0.16529E-08  3648   0.172E-04    0.989E-05
DAV:  14    -0.132965434451E+04   -0.34018E-06   -0.13899E-08  3536   0.116E-04    0.725E-05
DAV:  15    -0.132965434474E+04   -0.23251E-06   -0.77081E-09  3232   0.942E-05    0.521E-05
DAV:  16    -0.132965434499E+04   -0.25278E-06   -0.15348E-08  3680   0.131E-04    0.350E-05
DAV:  17    -0.132965434505E+04   -0.59517E-07   -0.50867E-09  3136   0.110E-04    0.413E-05
DAV:  18    -0.132965434510E+04   -0.43030E-07   -0.18370E-09  3072   0.501E-05    0.271E-05
DAV:  19    -0.132965434513E+04   -0.31840E-07   -0.11770E-09  3072   0.400E-05    0.140E-05
DAV:  20    -0.132965434514E+04   -0.13868E-07   -0.55021E-10  3072   0.279E-05    0.101E-05
DAV:  21    -0.132965434515E+04   -0.92259E-08   -0.15997E-10  3072   0.199E-05
   7 F= -.13485805E+04 E0= -.13485805E+04  d E =-.381200E-03  mag=     0.0000
       N       E                     dE             d eps       ncg     rms          rms(c)
DAV:   1    -0.132965472898E+04   -0.38383E-03   -0.11590E+00  5120   0.113E+00    0.185E-01
DAV:   2    -0.132965549491E+04   -0.76593E-03   -0.11379E-02  5600   0.106E-01    0.131E-01
DAV:   3    -0.132965533042E+04    0.16449E-03   -0.11871E-03  6432   0.470E-02    0.610E-02
DAV:   4    -0.132965532398E+04    0.64358E-05   -0.25366E-04  6368   0.197E-02    0.194E-02
DAV:   5    -0.132965532074E+04    0.32367E-05   -0.27373E-05  6400   0.753E-03    0.101E-02
DAV:   6    -0.132965531829E+04    0.24575E-05   -0.49598E-06  5664   0.362E-03    0.456E-03
DAV:   7    -0.132965531759E+04    0.69990E-06   -0.29393E-06  6688   0.258E-03    0.180E-03
DAV:   8    -0.132965531759E+04   -0.95606E-08   -0.56156E-07  6432   0.127E-03    0.120E-03
DAV:   9    -0.132965531783E+04   -0.23797E-06   -0.24331E-07  6112   0.121E-03    0.776E-04
DAV:  10    -0.132965531863E+04   -0.80168E-06   -0.30507E-07  5952   0.122E-03    0.469E-04
DAV:  11    -0.132965531934E+04   -0.70808E-06   -0.20003E-07  5664   0.704E-04    0.329E-04
DAV:  12    -0.132965531997E+04   -0.62573E-06   -0.44747E-08  4416   0.324E-04    0.207E-04
DAV:  13    -0.132965532059E+04   -0.62621E-06   -0.28167E-08  4224   0.209E-04    0.136E-04
DAV:  14    -0.132965532105E+04   -0.45392E-06   -0.16276E-08  3648   0.128E-04    0.866E-05
DAV:  15    -0.132965532138E+04   -0.32737E-06   -0.10809E-08  3456   0.850E-05    0.609E-05
DAV:  16    -0.132965532158E+04   -0.20534E-06   -0.73377E-09  3312   0.823E-05    0.333E-05
DAV:  17    -0.132965532168E+04   -0.10055E-06   -0.46196E-09  3072   0.761E-05    0.312E-05
DAV:  18    -0.132965532172E+04   -0.40440E-07   -0.29998E-09  3104   0.745E-05    0.201E-05
DAV:  19    -0.132965532174E+04   -0.22017E-07   -0.19192E-09  3072   0.588E-05    0.118E-05
DAV:  20    -0.132965532175E+04   -0.87457E-08   -0.88817E-10  3072   0.343E-05
   8 F= -.13485809E+04 E0= -.13485809E+04  d E =-.424306E-03  mag=    -0.0000
       N       E                     dE             d eps       ncg     rms          rms(c)
DAV:   1    -0.132965393392E+04    0.13878E-02   -0.11665E+00  5120   0.109E+00    0.307E-01
DAV:   2    -0.132965448897E+04   -0.55505E-03   -0.10723E-02  5664   0.111E-01    0.257E-01
DAV:   3    -0.132965435028E+04    0.13869E-03   -0.23900E-03  5696   0.820E-02    0.433E-02
DAV:   4    -0.132965432910E+04    0.21187E-04   -0.62063E-04  5504   0.348E-02    0.255E-02
DAV:   5    -0.132965432753E+04    0.15663E-05   -0.12318E-04  6432   0.127E-02    0.157E-02
DAV:   6    -0.132965432530E+04    0.22266E-05   -0.15212E-05  6688   0.593E-03    0.706E-03
DAV:   7    -0.132965432487E+04    0.42992E-06   -0.35817E-06  6240   0.279E-03    0.277E-03
DAV:   8    -0.132965432557E+04   -0.69835E-06   -0.88932E-07  6976   0.151E-03    0.160E-03
DAV:   9    -0.132965432661E+04   -0.10419E-05   -0.31383E-07  5632   0.921E-04    0.934E-04
DAV:  10    -0.132965432862E+04   -0.20023E-05   -0.29938E-07  5568   0.108E-03    0.534E-04
DAV:  11    -0.132965433044E+04   -0.18283E-05   -0.27015E-07  5248   0.803E-04    0.338E-04
DAV:  12    -0.132965433181E+04   -0.13711E-05   -0.93655E-08  5184   0.351E-04    0.303E-04
DAV:  13    -0.132965433271E+04   -0.89862E-06   -0.26825E-08  4064   0.163E-04    0.159E-04
DAV:  14    -0.132965433349E+04   -0.77233E-06   -0.28747E-08  4064   0.141E-04    0.110E-04
DAV:  15    -0.132965433391E+04   -0.42730E-06   -0.11630E-08  3520   0.101E-04    0.644E-05
DAV:  16    -0.132965433417E+04   -0.25581E-06   -0.69663E-09  3200   0.827E-05    0.411E-05
DAV:  17    -0.132965433433E+04   -0.16051E-06   -0.56115E-09  3136   0.777E-05    0.342E-05
DAV:  18    -0.132965433444E+04   -0.10771E-06   -0.47978E-09  3136   0.708E-05    0.224E-05
DAV:  19    -0.132965433448E+04   -0.42259E-07   -0.22601E-09  3072   0.567E-05    0.121E-05
DAV:  20    -0.132965433450E+04   -0.22905E-07   -0.11295E-09  3072   0.397E-05    0.124E-05
DAV:  21    -0.132965433451E+04   -0.12122E-07   -0.33414E-10  3072   0.245E-05    0.100E-05
DAV:  22    -0.132965433452E+04   -0.74942E-08   -0.87973E-11  3072   0.184E-05
   9 F= -.13485804E+04 E0= -.13485804E+04  d E =0.495739E-03  mag=    -0.0000
       N       E                     dE             d eps       ncg     rms          rms(c)
DAV:   1    -0.132965447633E+04   -0.14181E-03   -0.11482E+00  5120   0.109E+00    0.219E-01
DAV:   2    -0.132965545752E+04   -0.98119E-03   -0.12241E-02  5728   0.953E-02    0.159E-01
DAV:   3    -0.132965530464E+04    0.15288E-03   -0.12513E-03  6432   0.439E-02    0.761E-02
DAV:   4    -0.132965529645E+04    0.81953E-05   -0.29341E-04  5696   0.187E-02    0.280E-02
DAV:   5    -0.132965528628E+04    0.10168E-04   -0.10665E-04  5504   0.149E-02    0.117E-02
DAV:   6    -0.132965528676E+04   -0.48810E-06   -0.15954E-05  5600   0.509E-03    0.503E-03
DAV:   7    -0.132965528910E+04   -0.23374E-05   -0.39958E-06  6528   0.281E-03    0.252E-03
DAV:   8    -0.132965529081E+04   -0.17038E-05   -0.66843E-07  6080   0.112E-03    0.132E-03
DAV:   9    -0.132965529401E+04   -0.32007E-05   -0.48667E-07  5120   0.108E-03    0.102E-03
DAV:  10    -0.132965529686E+04   -0.28490E-05   -0.29631E-07  5280   0.691E-04    0.717E-04
DAV:  11    -0.132965529929E+04   -0.24371E-05   -0.34462E-07  5248   0.684E-04    0.498E-04
DAV:  12    -0.132965530086E+04   -0.15693E-05   -0.10862E-07  4640   0.412E-04    0.400E-04
DAV:  13    -0.132965530162E+04   -0.76248E-06   -0.46788E-08  4864   0.229E-04    0.212E-04
DAV:  14    -0.132965530245E+04   -0.82157E-06   -0.37101E-08  4192   0.156E-04    0.110E-04
DAV:  15    -0.132965530284E+04   -0.39347E-06   -0.12062E-08  3584   0.106E-04    0.827E-05
DAV:  16    -0.132965530320E+04   -0.35609E-06   -0.14601E-08  3872   0.860E-05    0.561E-05
DAV:  17    -0.132965530335E+04   -0.15015E-06   -0.42353E-09  3232   0.750E-05    0.357E-05
DAV:  18    -0.132965530344E+04   -0.93511E-07   -0.33890E-09  3072   0.718E-05    0.464E-05
DAV:  19    -0.132965530349E+04   -0.47439E-07   -0.18606E-09  3072   0.556E-05    0.386E-05
DAV:  20    -0.132965530351E+04   -0.27227E-07   -0.10677E-09  3072   0.452E-05    0.103E-05
DAV:  21    -0.132965530353E+04   -0.15629E-07   -0.71136E-10  3072   0.384E-05    0.265E-05
DAV:  22    -0.132965530354E+04   -0.59517E-08   -0.12225E-10  2944   0.199E-05
  10 F= -.13485814E+04 E0= -.13485814E+04  d E =-.994394E-03  mag=    -0.0000
       N       E                     dE             d eps       ncg     rms          rms(c)
DAV:   1    -0.132965462955E+04    0.67398E-03   -0.61506E-01  5120   0.821E-01    0.151E-01
DAV:   2    -0.132965505581E+04   -0.42626E-03   -0.70258E-03  5760   0.829E-02    0.107E-01
DAV:   3    -0.132965494630E+04    0.10951E-03   -0.85607E-04  6400   0.403E-02    0.576E-02
DAV:   4    -0.132965493812E+04    0.81812E-05   -0.20079E-04  5696   0.200E-02    0.203E-02
DAV:   5    -0.132965493071E+04    0.74065E-05   -0.79276E-05  5568   0.141E-02    0.861E-03
DAV:   6    -0.132965492953E+04    0.11823E-05   -0.98202E-06  5632   0.432E-03    0.408E-03
DAV:   7    -0.132965492943E+04    0.94849E-07   -0.27572E-06  6624   0.248E-03    0.245E-03
DAV:   8    -0.132965492947E+04   -0.37791E-07   -0.45791E-07  6592   0.132E-03    0.139E-03
DAV:   9    -0.132965492997E+04   -0.50261E-06   -0.37469E-07  5792   0.162E-03    0.723E-04
DAV:  10    -0.132965493084E+04   -0.86251E-06   -0.37056E-07  5920   0.109E-03    0.765E-04
DAV:  11    -0.132965493183E+04   -0.99104E-06   -0.20230E-07  5408   0.722E-04    0.431E-04
DAV:  12    -0.132965493254E+04   -0.71398E-06   -0.77982E-08  4960   0.494E-04    0.276E-04
DAV:  13    -0.132965493308E+04   -0.54068E-06   -0.39564E-08  4544   0.287E-04    0.192E-04
DAV:  14    -0.132965493349E+04   -0.40344E-06   -0.10478E-08  3488   0.124E-04    0.119E-04
DAV:  15    -0.132965493402E+04   -0.53820E-06   -0.23084E-08  4064   0.114E-04    0.117E-04
DAV:  16    -0.132965493425E+04   -0.22088E-06   -0.45980E-09  3168   0.777E-05    0.604E-05
DAV:  17    -0.132965493441E+04   -0.16901E-06   -0.64873E-09  3360   0.666E-05    0.481E-05
DAV:  18    -0.132965493450E+04   -0.83921E-07   -0.23983E-09  3104   0.572E-05    0.277E-05
DAV:  19    -0.132965493455E+04   -0.53769E-07   -0.24501E-09  3072   0.528E-05    0.303E-05
DAV:  20    -0.132965493457E+04   -0.14654E-07   -0.11460E-09  3136   0.491E-05    0.215E-05
DAV:  21    -0.132965493457E+04   -0.63592E-08   -0.55442E-10  3072   0.332E-05
  11 F= -.13485806E+04 E0= -.13485806E+04  d E =0.846269E-03  mag=    -0.0000
       N       E                     dE             d eps       ncg     rms          rms(c)
DAV:   1    -0.132965583007E+04   -0.89550E-03   -0.76062E-02  4928   0.183E-01    0.102E-01
DAV:   2    -0.132965577269E+04    0.57380E-04   -0.75654E-04  5248   0.191E-02    0.586E-02
DAV:   3    -0.132965576030E+04    0.12384E-04   -0.38538E-04  5312   0.119E-02    0.187E-02
DAV:   4    -0.132965575325E+04    0.70477E-05   -0.34262E-05  4944   0.365E-03    0.117E-02
DAV:   5    -0.132965575211E+04    0.11467E-05   -0.18117E-05  5056   0.254E-03    0.202E-03
DAV:   6    -0.132965575217E+04   -0.64247E-07   -0.99064E-07  4832   0.795E-04    0.116E-03
DAV:   7    -0.132965575223E+04   -0.59183E-07   -0.17472E-07  4704   0.283E-04    0.853E-04
DAV:   8    -0.132965575234E+04   -0.10802E-06   -0.42893E-08  4000   0.212E-04    0.246E-04
DAV:   9    -0.132965575243E+04   -0.92419E-07   -0.18947E-08  3776   0.151E-04    0.181E-04
DAV:  10    -0.132965575253E+04   -0.99200E-07   -0.56755E-09  3296   0.964E-05    0.861E-05
DAV:  11    -0.132965575262E+04   -0.94631E-07   -0.71824E-09  3520   0.102E-04    0.643E-05
DAV:  12    -0.132965575269E+04   -0.64087E-07   -0.50541E-09  3200   0.976E-05    0.412E-05
DAV:  13    -0.132965575272E+04   -0.34590E-07   -0.34809E-09  3136   0.789E-05    0.355E-05
DAV:  14    -0.132965575275E+04   -0.27125E-07   -0.24178E-09  3104   0.616E-05    0.208E-05
DAV:  15    -0.132965575278E+04   -0.29162E-07   -0.24434E-09  3072   0.561E-05    0.224E-05
DAV:  16    -0.132965575279E+04   -0.79890E-08   -0.87076E-10  3008   0.354E-05
  12 F= -.13485814E+04 E0= -.13485814E+04  d E =-.851041E-03  mag=     0.0000
       N       E                     dE             d eps       ncg     rms          rms(c)
DAV:   1    -0.132965522520E+04    0.52758E-03   -0.75316E-02  4928   0.180E-01    0.948E-02
DAV:   2    -0.132965519189E+04    0.33314E-04   -0.61523E-04  4800   0.162E-02    0.562E-02
DAV:   3    -0.132965518317E+04    0.87176E-05   -0.29653E-04  5408   0.100E-02    0.159E-02
DAV:   4    -0.132965517742E+04    0.57505E-05   -0.28080E-05  5088   0.331E-03    0.991E-03
DAV:   5    -0.132965517653E+04    0.88724E-06   -0.14741E-05  4928   0.233E-03    0.180E-03
DAV:   6    -0.132965517666E+04   -0.13025E-06   -0.81920E-07  4752   0.666E-04    0.108E-03
DAV:   7    -0.132965517680E+04   -0.13303E-06   -0.14554E-07  4608   0.279E-04    0.635E-04
DAV:   8    -0.132965517698E+04   -0.18031E-06   -0.29288E-08  3776   0.144E-04    0.274E-04
DAV:   9    -0.132965517718E+04   -0.20624E-06   -0.17009E-08  3728   0.108E-04    0.149E-04
DAV:  10    -0.132965517746E+04   -0.27556E-06   -0.18185E-08  3808   0.123E-04    0.105E-04
DAV:  11    -0.132965517758E+04   -0.12120E-06   -0.79058E-09  3520   0.110E-04    0.538E-05
DAV:  12    -0.132965517768E+04   -0.10263E-06   -0.68213E-09  3360   0.104E-04    0.512E-05
DAV:  13    -0.132965517774E+04   -0.56709E-07   -0.42005E-09  3168   0.798E-05    0.397E-05
DAV:  14    -0.132965517777E+04   -0.35332E-07   -0.23141E-09  3136   0.517E-05    0.181E-05
DAV:  15    -0.132965517780E+04   -0.27387E-07   -0.20788E-09  3104   0.457E-05    0.207E-05
DAV:  16    -0.132965517781E+04   -0.58790E-08   -0.68222E-10  2944   0.288E-05
  13 F= -.13485807E+04 E0= -.13485807E+04  d E =0.788436E-03  mag=    -0.0000
       N       E                     dE             d eps       ncg     rms          rms(c)
DAV:   1    -0.132965519334E+04   -0.15536E-04   -0.77592E-02  5088   0.172E-01    0.109E-01
DAV:   2    -0.132965513176E+04    0.61579E-04   -0.10670E-03  5216   0.216E-02    0.660E-02
DAV:   3    -0.132965511542E+04    0.16341E-04   -0.56844E-04  5440   0.143E-02    0.228E-02
DAV:   4    -0.132965510347E+04    0.11944E-04   -0.73621E-05  5312   0.510E-03    0.145E-02
DAV:   5    -0.132965510252E+04    0.94828E-06   -0.20744E-05  5728   0.279E-03    0.384E-03
DAV:   6    -0.132965510289E+04   -0.36947E-06   -0.20458E-06  5056   0.960E-04    0.140E-03
DAV:   7    -0.132965510342E+04   -0.53069E-06   -0.50626E-07  5216   0.453E-04    0.752E-04
DAV:   8    -0.132965510404E+04   -0.61509E-06   -0.71737E-08  4032   0.194E-04    0.381E-04
DAV:   9    -0.132965510460E+04   -0.55596E-06   -0.33537E-08  4016   0.134E-04    0.182E-04
DAV:  10    -0.132965510516E+04   -0.56824E-06   -0.23778E-08  3856   0.118E-04    0.139E-04
DAV:  11    -0.132965510558E+04   -0.41924E-06   -0.17239E-08  3840   0.117E-04    0.884E-05
DAV:  12    -0.132965510586E+04   -0.27404E-06   -0.12314E-08  3520   0.122E-04    0.514E-05
DAV:  13    -0.132965510600E+04   -0.14377E-06   -0.74044E-09  3360   0.119E-04    0.519E-05
DAV:  14    -0.132965510613E+04   -0.12989E-06   -0.65884E-09  3344   0.968E-05    0.339E-05
DAV:  15    -0.132965510618E+04   -0.50451E-07   -0.26855E-09  3136   0.633E-05    0.221E-05
DAV:  16    -0.132965510622E+04   -0.34357E-07   -0.15440E-09  3136   0.449E-05    0.155E-05
DAV:  17    -0.132965510624E+04   -0.20285E-07   -0.73657E-10  3136   0.310E-05    0.170E-05
DAV:  18    -0.132965510625E+04   -0.94005E-08   -0.26846E-10  3072   0.214E-05
  14 F= -.13485809E+04 E0= -.13485809E+04  d E =-.195656E-03  mag=     0.0000
       N       E                     dE             d eps       ncg     rms          rms(c)
DAV:   1    -0.132965449439E+04    0.61185E-03   -0.72710E-02  4992   0.132E-01    0.819E-02
DAV:   2    -0.132965449495E+04   -0.56185E-06   -0.37323E-04  4928   0.993E-03    0.490E-02
DAV:   3    -0.132965450040E+04   -0.54471E-05   -0.70688E-05  5184   0.444E-03    0.592E-03
DAV:   4    -0.132965450046E+04   -0.60187E-07   -0.78358E-06  5024   0.149E-03    0.317E-03
DAV:   5    -0.132965450121E+04   -0.75382E-06   -0.11812E-06  5312   0.663E-04    0.133E-03
DAV:   6    -0.132965450214E+04   -0.92856E-06   -0.16038E-07  4352   0.264E-04    0.638E-04
DAV:   7    -0.132965450319E+04   -0.10477E-05   -0.92502E-08  4032   0.186E-04    0.278E-04
DAV:   8    -0.132965450410E+04   -0.91436E-06   -0.35426E-08  3744   0.117E-04    0.201E-04
DAV:   9    -0.132965450517E+04   -0.10657E-05   -0.45739E-08  4096   0.139E-04    0.981E-05
DAV:  10    -0.132965450573E+04   -0.56271E-06   -0.18729E-08  3680   0.131E-04    0.896E-05
DAV:  11    -0.132965450607E+04   -0.34453E-06   -0.10051E-08  3520   0.128E-04    0.563E-05
DAV:  12    -0.132965450638E+04   -0.30739E-06   -0.10671E-08  3488   0.116E-04    0.401E-05
DAV:  13    -0.132965450654E+04   -0.16387E-06   -0.51598E-09  3168   0.767E-05    0.295E-05
DAV:  14    -0.132965450663E+04   -0.81083E-07   -0.32148E-09  3136   0.669E-05    0.156E-05
DAV:  15    -0.132965450666E+04   -0.34270E-07   -0.14109E-09  3072   0.489E-05    0.114E-05
DAV:  16    -0.132965450668E+04   -0.25189E-07   -0.63329E-10  3072   0.288E-05    0.760E-06
DAV:  17    -0.132965450669E+04   -0.84692E-08   -0.14443E-10  3072   0.192E-05
  15 F= -.13485802E+04 E0= -.13485802E+04  d E =0.624872E-03  mag=    -0.0000
       N       E                     dE             d eps       ncg     rms          rms(c)
DAV:   1    -0.132965544639E+04   -0.93971E-03   -0.80472E-02  5152   0.139E-01    0.134E-01
DAV:   2    -0.132965524104E+04    0.20535E-03   -0.13016E-03  5568   0.222E-02    0.725E-02
DAV:   3    -0.132965521522E+04    0.25822E-04   -0.49918E-04  5920   0.117E-02    0.243E-02
DAV:   4    -0.132965520645E+04    0.87681E-05   -0.69904E-05  5888   0.525E-03    0.112E-02
DAV:   5    -0.132965520802E+04   -0.15607E-05   -0.68043E-06  5088   0.179E-03    0.299E-03
DAV:   6    -0.132965520821E+04   -0.19703E-06   -0.12792E-06  5472   0.737E-04    0.137E-03
DAV:   7    -0.132965520849E+04   -0.28213E-06   -0.28164E-07  4928   0.379E-04    0.530E-04
DAV:   8    -0.132965520870E+04   -0.20346E-06   -0.28510E-08  3744   0.133E-04    0.255E-04
DAV:   9    -0.132965520891E+04   -0.21337E-06   -0.96385E-09  3456   0.830E-05    0.109E-04
DAV:  10    -0.132965520908E+04   -0.17331E-06   -0.52053E-09  3360   0.562E-05    0.592E-05
DAV:  11    -0.132965520922E+04   -0.13458E-06   -0.30558E-09  3264   0.472E-05    0.368E-05
DAV:  12    -0.132965520932E+04   -0.97090E-07   -0.25014E-09  3200   0.468E-05    0.288E-05
DAV:  13    -0.132965520939E+04   -0.78435E-07   -0.21912E-09  3168   0.414E-05    0.170E-05
DAV:  14    -0.132965520944E+04   -0.49695E-07   -0.14929E-09  3072   0.331E-05    0.121E-05
DAV:  15    -0.132965520947E+04   -0.22890E-07   -0.62744E-10  3072   0.276E-05    0.815E-06
DAV:  16    -0.132965520948E+04   -0.12835E-07   -0.26102E-10  3072   0.221E-05    0.567E-06
DAV:  17    -0.132965520949E+04   -0.65920E-08   -0.30901E-11  3072   0.148E-05
  16 F= -.13485809E+04 E0= -.13485809E+04  d E =-.681024E-03  mag=     0.0000
       N       E                     dE             d eps       ncg     rms          rms(c)
DAV:   1    -0.132965536929E+04   -0.15981E-03   -0.73599E-02  5056   0.149E-01    0.935E-02
DAV:   2    -0.132965535341E+04    0.15880E-04   -0.78704E-04  5472   0.154E-02    0.559E-02
DAV:   3    -0.132965534881E+04    0.45993E-05   -0.23279E-04  6016   0.880E-03    0.152E-02
DAV:   4    -0.132965534406E+04    0.47544E-05   -0.27110E-05  5632   0.297E-03    0.725E-03
DAV:   5    -0.132965534432E+04   -0.26556E-06   -0.54624E-06  5888   0.141E-03    0.170E-03
DAV:   6    -0.132965534459E+04   -0.27122E-06   -0.28603E-07  4608   0.421E-04    0.875E-04
DAV:   7    -0.132965534501E+04   -0.41453E-06   -0.96842E-08  4256   0.217E-04    0.341E-04
DAV:   8    -0.132965534542E+04   -0.40984E-06   -0.23652E-08  3744   0.115E-04    0.200E-04
DAV:   9    -0.132965534586E+04   -0.44664E-06   -0.14423E-08  3680   0.857E-05    0.101E-04
DAV:  10    -0.132965534624E+04   -0.37582E-06   -0.12577E-08  3712   0.766E-05    0.713E-05
DAV:  11    -0.132965534653E+04   -0.28682E-06   -0.91401E-09  3584   0.728E-05    0.500E-05
DAV:  12    -0.132965534673E+04   -0.20509E-06   -0.69734E-09  3392   0.672E-05    0.301E-05
DAV:  13    -0.132965534685E+04   -0.11775E-06   -0.45829E-09  3168   0.559E-05    0.192E-05
DAV:  14    -0.132965534691E+04   -0.62297E-07   -0.23951E-09  3072   0.451E-05    0.136E-05
DAV:  15    -0.132965534694E+04   -0.32422E-07   -0.13666E-09  3072   0.354E-05    0.925E-06
DAV:  16    -0.132965534696E+04   -0.18117E-07   -0.73019E-10  3072   0.278E-05    0.632E-06
DAV:  17    -0.132965534697E+04   -0.82073E-08   -0.30240E-10  3072   0.192E-05
  17 F= -.13485810E+04 E0= -.13485810E+04  d E =-.118276E-03  mag=     0.0000
       N       E                     dE             d eps       ncg     rms          rms(c)
DAV:   1    -0.132965477622E+04    0.57075E-03   -0.83656E-02  4896   0.155E-01    0.136E-01
DAV:   2    -0.132965458972E+04    0.18650E-03   -0.15600E-03  5024   0.243E-02    0.779E-02
DAV:   3    -0.132965453896E+04    0.50761E-04   -0.97179E-04  5280   0.178E-02    0.291E-02
DAV:   4    -0.132965452055E+04    0.18409E-04   -0.93706E-05  4896   0.574E-03    0.182E-02
DAV:   5    -0.132965451805E+04    0.24996E-05   -0.33537E-05  5312   0.351E-03    0.347E-03
DAV:   6    -0.132965451818E+04   -0.13686E-06   -0.31905E-06  4960   0.117E-03    0.138E-03
DAV:   7    -0.132965451852E+04   -0.33122E-06   -0.40235E-07  5040   0.412E-04    0.126E-03
DAV:   8    -0.132965451897E+04   -0.45350E-06   -0.97872E-08  4160   0.282E-04    0.394E-04
DAV:   9    -0.132965451941E+04   -0.44591E-06   -0.60500E-08  4160   0.211E-04    0.346E-04
DAV:  10    -0.132965451989E+04   -0.47708E-06   -0.22732E-08  3808   0.132E-04    0.132E-04
DAV:  11    -0.132965452036E+04   -0.46432E-06   -0.20944E-08  3904   0.129E-04    0.958E-05
DAV:  12    -0.132965452068E+04   -0.32112E-06   -0.12535E-08  3680   0.986E-05    0.691E-05
DAV:  13    -0.132965452087E+04   -0.19024E-06   -0.58641E-09  3328   0.764E-05    0.498E-05
DAV:  14    -0.132965452103E+04   -0.16694E-06   -0.72244E-09  3456   0.740E-05    0.297E-05
DAV:  15    -0.132965452111E+04   -0.75263E-07   -0.30465E-09  3136   0.598E-05    0.295E-05
DAV:  16    -0.132965452116E+04   -0.46333E-07   -0.18592E-09  3136   0.434E-05    0.242E-05
DAV:  17    -0.132965452119E+04   -0.33149E-07   -0.11237E-09  3104   0.367E-05    0.176E-05
DAV:  18    -0.132965452120E+04   -0.93714E-08   -0.43932E-10  3072   0.247E-05
  18 F= -.13485802E+04 E0= -.13485802E+04  d E =0.791350E-03  mag=    -0.0000
       N       E                     dE             d eps       ncg     rms          rms(c)
DAV:   1    -0.132965590322E+04   -0.13820E-02   -0.79088E-02  4896   0.153E-01    0.114E-01
DAV:   2    -0.132965579521E+04    0.10801E-03   -0.10107E-03  4832   0.183E-02    0.664E-02
DAV:   3    -0.132965576953E+04    0.25683E-04   -0.60576E-04  5216   0.136E-02    0.232E-02
DAV:   4    -0.132965575760E+04    0.11924E-04   -0.60094E-05  4768   0.452E-03    0.142E-02
DAV:   5    -0.132965575630E+04    0.12998E-05   -0.21492E-05  5280   0.281E-03    0.285E-03
DAV:   6    -0.132965575640E+04   -0.97571E-07   -0.16951E-06  4736   0.832E-04    0.121E-03
DAV:   7    -0.132965575666E+04   -0.26055E-06   -0.28702E-07  4960   0.317E-04    0.937E-04
DAV:   8    -0.132965575703E+04   -0.37036E-06   -0.40977E-08  3712   0.166E-04    0.347E-04
DAV:   9    -0.132965575748E+04   -0.44657E-06   -0.34925E-08  3744   0.128E-04    0.217E-04
DAV:  10    -0.132965575802E+04   -0.54522E-06   -0.16740E-08  3616   0.942E-05    0.985E-05
DAV:  11    -0.132965575843E+04   -0.40975E-06   -0.14605E-08  3712   0.864E-05    0.820E-05
DAV:  12    -0.132965575873E+04   -0.29594E-06   -0.10249E-08  3568   0.854E-05    0.583E-05
DAV:  13    -0.132965575888E+04   -0.15364E-06   -0.49262E-09  3296   0.722E-05    0.360E-05
DAV:  14    -0.132965575901E+04   -0.12881E-06   -0.43347E-09  3232   0.614E-05    0.221E-05
DAV:  15    -0.132965575906E+04   -0.49185E-07   -0.21496E-09  3136   0.490E-05    0.243E-05
DAV:  16    -0.132965575908E+04   -0.19063E-07   -0.82169E-10  3088   0.332E-05    0.148E-05
DAV:  17    -0.132965575910E+04   -0.16982E-07   -0.60493E-10  3072   0.271E-05    0.131E-05
DAV:  18    -0.132965575911E+04   -0.72760E-08   -0.86120E-11  3072   0.174E-05
  19 F= -.13485813E+04 E0= -.13485813E+04  d E =-.108541E-02  mag=     0.0000
       N       E                     dE             d eps       ncg     rms          rms(c)
DAV:   1    -0.132965547162E+04    0.28748E-03   -0.70764E-02  5120   0.175E-01    0.726E-02
DAV:   2    -0.132965550139E+04   -0.29769E-04   -0.73264E-04  5856   0.163E-02    0.443E-02
DAV:   3    -0.132965548748E+04    0.13902E-04   -0.80651E-05  5792   0.101E-02    0.103E-02
DAV:   4    -0.132965548665E+04    0.83866E-06   -0.11237E-05  5792   0.314E-03    0.478E-03
DAV:   5    -0.132965548640E+04    0.24708E-06   -0.26881E-06  5600   0.234E-03    0.193E-03
DAV:   6    -0.132965548663E+04   -0.23302E-06   -0.44581E-07  6240   0.843E-04    0.104E-03
DAV:   7    -0.132965548720E+04   -0.56475E-06   -0.13449E-07  5280   0.442E-04    0.625E-04
DAV:   8    -0.132965548803E+04   -0.83784E-06   -0.67598E-08  4608   0.300E-04    0.322E-04
DAV:   9    -0.132965548898E+04   -0.95002E-06   -0.76237E-08  4480   0.260E-04    0.243E-04
DAV:  10    -0.132965548996E+04   -0.97978E-06   -0.58607E-08  4256   0.180E-04    0.137E-04
DAV:  11    -0.132965549041E+04   -0.44903E-06   -0.15214E-08  3712   0.108E-04    0.107E-04
DAV:  12    -0.132965549077E+04   -0.35584E-06   -0.10878E-08  3552   0.111E-04    0.679E-05
DAV:  13    -0.132965549102E+04   -0.25080E-06   -0.83432E-09  3360   0.108E-04    0.529E-05
DAV:  14    -0.132965549117E+04   -0.14887E-06   -0.57783E-09  3264   0.975E-05    0.319E-05
DAV:  15    -0.132965549130E+04   -0.12862E-06   -0.52411E-09  3232   0.869E-05    0.284E-05
DAV:  16    -0.132965549136E+04   -0.59372E-07   -0.26090E-09  3136   0.555E-05    0.216E-05
DAV:  17    -0.132965549139E+04   -0.31519E-07   -0.13059E-09  3136   0.426E-05    0.117E-05
DAV:  18    -0.132965549141E+04   -0.20373E-07   -0.72994E-10  3104   0.304E-05    0.212E-05
DAV:  19    -0.132965549141E+04   -0.63301E-08   -0.13443E-10  3072   0.193E-05
  20 F= -.13485812E+04 E0= -.13485812E+04  d E =0.150384E-03  mag=    -0.0000
       N       E                     dE             d eps       ncg     rms          rms(c)
DAV:   1    -0.132965586752E+04   -0.37611E-03   -0.70348E-02  5120   0.156E-01    0.668E-02
DAV:   2    -0.132965588922E+04   -0.21710E-04   -0.84924E-04  5696   0.160E-02    0.431E-02
DAV:   3    -0.132965585281E+04    0.36410E-04   -0.10381E-04  5824   0.116E-02    0.102E-02
DAV:   4    -0.132965585231E+04    0.50491E-06   -0.12968E-05  5888   0.400E-03    0.454E-03
DAV:   5    -0.132965585258E+04   -0.26777E-06   -0.33937E-06  5888   0.271E-03    0.208E-03
DAV:   6    -0.132965585297E+04   -0.38874E-06   -0.51001E-07  6336   0.987E-04    0.111E-03
DAV:   7    -0.132965585365E+04   -0.68812E-06   -0.15368E-07  5376   0.488E-04    0.729E-04
DAV:   8    -0.132965585468E+04   -0.10301E-05   -0.90045E-08  4960   0.438E-04    0.358E-04
DAV:   9    -0.132965585571E+04   -0.10209E-05   -0.98411E-08  4704   0.352E-04    0.325E-04
DAV:  10    -0.132965585663E+04   -0.92675E-06   -0.57295E-08  4464   0.198E-04    0.166E-04
DAV:  11    -0.132965585720E+04   -0.56364E-06   -0.27933E-08  4048   0.135E-04    0.138E-04
DAV:  12    -0.132965585757E+04   -0.37553E-06   -0.14852E-08  3584   0.120E-04    0.812E-05
DAV:  13    -0.132965585777E+04   -0.19559E-06   -0.66851E-09  3296   0.965E-05    0.473E-05
DAV:  14    -0.132965585793E+04   -0.16748E-06   -0.74795E-09  3376   0.915E-05    0.361E-05
DAV:  15    -0.132965585801E+04   -0.75655E-07   -0.31963E-09  3136   0.704E-05    0.277E-05
DAV:  16    -0.132965585807E+04   -0.56607E-07   -0.20457E-09  3120   0.513E-05    0.128E-05
DAV:  17    -0.132965585810E+04   -0.37267E-07   -0.12990E-09  3104   0.423E-05    0.161E-05
DAV:  18    -0.132965585812E+04   -0.13199E-07   -0.43507E-10  3072   0.281E-05    0.109E-05
DAV:  19    -0.132965585813E+04   -0.15250E-07   -0.24742E-10  3072   0.236E-05    0.136E-05
DAV:  20    -0.132965585814E+04   -0.39145E-08   -0.31832E-11  2944   0.150E-05
  21 F= -.13485816E+04 E0= -.13485816E+04  d E =-.449883E-03  mag=     0.0000
       N       E                     dE             d eps       ncg     rms          rms(c)
DAV:   1    -0.132965592059E+04   -0.62455E-04   -0.69596E-02  5120   0.155E-01    0.692E-02
DAV:   2    -0.132965592811E+04   -0.75194E-05   -0.92777E-04  5696   0.158E-02    0.416E-02
DAV:   3    -0.132965589820E+04    0.29912E-04   -0.14775E-04  6400   0.118E-02    0.131E-02
DAV:   4    -0.132965589529E+04    0.29018E-05   -0.16136E-05  5824   0.417E-03    0.576E-03
DAV:   5    -0.132965589492E+04    0.37093E-06   -0.51311E-06  5984   0.257E-03    0.217E-03
DAV:   6    -0.132965589508E+04   -0.15236E-06   -0.47281E-07  6432   0.930E-04    0.125E-03
DAV:   7    -0.132965589535E+04   -0.27686E-06   -0.11513E-07  5312   0.453E-04    0.687E-04
DAV:   8    -0.132965589579E+04   -0.43516E-06   -0.60994E-08  5136   0.437E-04    0.313E-04
DAV:   9    -0.132965589620E+04   -0.41250E-06   -0.29892E-08  4288   0.253E-04    0.230E-04
DAV:  10    -0.132965589675E+04   -0.55037E-06   -0.25601E-08  4032   0.197E-04    0.139E-04
DAV:  11    -0.132965589719E+04   -0.44201E-06   -0.23515E-08  4032   0.173E-04    0.120E-04
DAV:  12    -0.132965589752E+04   -0.32346E-06   -0.15666E-08  3680   0.147E-04    0.805E-05
DAV:  13    -0.132965589772E+04   -0.20156E-06   -0.63508E-09  3264   0.829E-05    0.624E-05
DAV:  14    -0.132965589783E+04   -0.11126E-06   -0.40476E-09  3200   0.587E-05    0.336E-05
DAV:  15    -0.132965589790E+04   -0.70999E-07   -0.24338E-09  3072   0.529E-05    0.217E-05
DAV:  16    -0.132965589797E+04   -0.65789E-07   -0.21393E-09  3072   0.440E-05    0.254E-05
DAV:  17    -0.132965589800E+04   -0.31723E-07   -0.91533E-10  3072   0.343E-05    0.165E-05
DAV:  18    -0.132965589802E+04   -0.19878E-07   -0.58727E-10  3072   0.309E-05    0.125E-05
DAV:  19    -0.132965589802E+04   -0.67666E-08   -0.15241E-10  3072   0.228E-05
  22 F= -.13485816E+04 E0= -.13485816E+04  d E =0.611194E-04  mag=    -0.0000
       N       E                     dE             d eps       ncg     rms          rms(c)
DAV:   1    -0.132965536857E+04    0.52945E-03   -0.70938E-02  5120   0.161E-01    0.853E-02
DAV:   2    -0.132965534129E+04    0.27278E-04   -0.82418E-04  5824   0.188E-02    0.498E-02
DAV:   3    -0.132965532541E+04    0.15875E-04   -0.12516E-04  6080   0.127E-02    0.158E-02
DAV:   4    -0.132965532456E+04    0.85756E-06   -0.20709E-05  6112   0.457E-03    0.568E-03
DAV:   5    -0.132965532453E+04    0.29788E-07   -0.34674E-06  5568   0.220E-03    0.256E-03
DAV:   6    -0.132965532469E+04   -0.16055E-06   -0.55926E-07  5952   0.102E-03    0.125E-03
DAV:   7    -0.132965532513E+04   -0.44020E-06   -0.11718E-07  5536   0.518E-04    0.655E-04
DAV:   8    -0.132965532576E+04   -0.63506E-06   -0.73050E-08  4992   0.464E-04    0.335E-04
DAV:   9    -0.132965532648E+04   -0.71817E-06   -0.49110E-08  4320   0.334E-04    0.215E-04
DAV:  10    -0.132965532723E+04   -0.74689E-06   -0.44653E-08  4288   0.298E-04    0.145E-04
DAV:  11    -0.132965532771E+04   -0.47935E-06   -0.30061E-08  4000   0.223E-04    0.947E-05
DAV:  12    -0.132965532802E+04   -0.30994E-06   -0.11991E-08  3520   0.121E-04    0.653E-05
DAV:  13    -0.132965532819E+04   -0.17468E-06   -0.55137E-09  3264   0.780E-05    0.452E-05
DAV:  14    -0.132965532830E+04   -0.11048E-06   -0.40868E-09  3072   0.743E-05    0.265E-05
DAV:  15    -0.132965532837E+04   -0.69384E-07   -0.38144E-09  3104   0.688E-05    0.289E-05
DAV:  16    -0.132965532840E+04   -0.25990E-07   -0.15915E-09  3104   0.462E-05    0.216E-05
DAV:  17    -0.132965532841E+04   -0.17681E-07   -0.11268E-09  3072   0.426E-05    0.169E-05
DAV:  18    -0.132965532842E+04   -0.55006E-08   -0.47786E-10  3072   0.306E-05
  23 F= -.13485811E+04 E0= -.13485811E+04  d E =0.449004E-03  mag=     0.0000
       N       E                     dE             d eps       ncg     rms          rms(c)
DAV:   1    -0.132965464594E+04    0.68248E-03   -0.81165E-02  5184   0.138E-01    0.132E-01
DAV:   2    -0.132965443902E+04    0.20692E-03   -0.13549E-03  5360   0.226E-02    0.727E-02
DAV:   3    -0.132965441302E+04    0.25997E-04   -0.61177E-04  5856   0.135E-02    0.254E-02
DAV:   4    -0.132965440120E+04    0.11824E-04   -0.79424E-05  6048   0.569E-03    0.129E-02
DAV:   5    -0.132965440278E+04   -0.15794E-05   -0.88836E-06  5120   0.216E-03    0.342E-03
DAV:   6    -0.132965440291E+04   -0.13714E-06   -0.18172E-06  5632   0.866E-04    0.132E-03
DAV:   7    -0.132965440331E+04   -0.39102E-06   -0.25813E-07  4640   0.367E-04    0.532E-04
DAV:   8    -0.132965440356E+04   -0.25093E-06   -0.35781E-08  3840   0.135E-04    0.277E-04
DAV:   9    -0.132965440389E+04   -0.33833E-06   -0.15352E-08  3616   0.978E-05    0.136E-04
DAV:  10    -0.132965440419E+04   -0.29572E-06   -0.97963E-09  3456   0.742E-05    0.770E-05
DAV:  11    -0.132965440440E+04   -0.21329E-06   -0.68833E-09  3424   0.606E-05    0.541E-05
DAV:  12    -0.132965440454E+04   -0.13884E-06   -0.42046E-09  3296   0.537E-05    0.426E-05
DAV:  13    -0.132965440467E+04   -0.12536E-06   -0.49404E-09  3264   0.505E-05    0.250E-05
DAV:  14    -0.132965440473E+04   -0.63141E-07   -0.23229E-09  3072   0.400E-05    0.164E-05
DAV:  15    -0.132965440477E+04   -0.37442E-07   -0.14696E-09  3072   0.341E-05    0.109E-05
DAV:  16    -0.132965440478E+04   -0.15425E-07   -0.69125E-10  3072   0.267E-05    0.874E-06
DAV:  17    -0.132965440479E+04   -0.10477E-07   -0.28065E-10  3072   0.196E-05    0.520E-06
DAV:  18    -0.132965440480E+04   -0.18917E-08   -0.59840E-11  3072   0.151E-05
  24 F= -.13485802E+04 E0= -.13485802E+04  d E =0.908017E-03  mag=    -0.0000
       N       E                     dE             d eps       ncg     rms          rms(c)
DAV:   1    -0.132965586819E+04   -0.14634E-02   -0.74066E-02  4992   0.133E-01    0.993E-02
DAV:   2    -0.132965580095E+04    0.67236E-04   -0.65508E-04  5280   0.147E-02    0.574E-02
DAV:   3    -0.132965579434E+04    0.66059E-05   -0.27978E-04  5792   0.962E-03    0.171E-02
DAV:   4    -0.132965578821E+04    0.61306E-05   -0.37025E-05  5920   0.399E-03    0.876E-03
DAV:   5    -0.132965578904E+04   -0.82978E-06   -0.69626E-06  5904   0.181E-03    0.199E-03
DAV:   6    -0.132965578946E+04   -0.41976E-06   -0.47902E-07  5248   0.542E-04    0.992E-04
DAV:   7    -0.132965579008E+04   -0.61766E-06   -0.15161E-07  4896   0.267E-04    0.483E-04
DAV:   8    -0.132965579060E+04   -0.52369E-06   -0.23266E-08  3680   0.153E-04    0.259E-04
DAV:   9    -0.132965579127E+04   -0.66246E-06   -0.22416E-08  3680   0.127E-04    0.131E-04
DAV:  10    -0.132965579186E+04   -0.59593E-06   -0.18284E-08  3680   0.105E-04    0.858E-05
DAV:  11    -0.132965579236E+04   -0.49343E-06   -0.15480E-08  3744   0.856E-05    0.501E-05
DAV:  12    -0.132965579260E+04   -0.23919E-06   -0.54743E-09  3264   0.588E-05    0.335E-05
DAV:  13    -0.132965579273E+04   -0.13964E-06   -0.37456E-09  3136   0.572E-05    0.238E-05
DAV:  14    -0.132965579280E+04   -0.66124E-07   -0.25152E-09  3072   0.501E-05    0.167E-05
DAV:  15    -0.132965579283E+04   -0.31985E-07   -0.17088E-09  3072   0.404E-05    0.891E-06
DAV:  16    -0.132965579284E+04   -0.77416E-08   -0.80717E-10  3072   0.321E-05
  25 F= -.13485814E+04 E0= -.13485814E+04  d E =-.124328E-02  mag=     0.0000
       N       E                     dE             d eps       ncg     rms          rms(c)
DAV:   1    -0.132965533663E+04    0.45620E-03   -0.71576E-02  4992   0.146E-01    0.864E-02
DAV:   2    -0.132965534374E+04   -0.71043E-05   -0.64856E-04  5184   0.140E-02    0.520E-02
DAV:   3    -0.132965534410E+04   -0.36776E-06   -0.11694E-04  5376   0.616E-03    0.107E-02
DAV:   4    -0.132965534264E+04    0.14612E-05   -0.18748E-05  5440   0.259E-03    0.424E-03
DAV:   5    -0.132965534307E+04   -0.42417E-06   -0.19506E-06  5408   0.103E-03    0.170E-03
DAV:   6    -0.132965534333E+04   -0.26396E-06   -0.24480E-07  5056   0.450E-04    0.776E-04
DAV:   7    -0.132965534362E+04   -0.28731E-06   -0.67949E-08  4320   0.213E-04    0.301E-04
DAV:   8    -0.132965534386E+04   -0.24124E-06   -0.17725E-08  3680   0.123E-04    0.185E-04
DAV:   9    -0.132965534412E+04   -0.26636E-06   -0.10673E-08  3584   0.926E-05    0.915E-05
DAV:  10    -0.132965534432E+04   -0.19194E-06   -0.70586E-09  3360   0.751E-05    0.586E-05
DAV:  11    -0.132965534447E+04   -0.15472E-06   -0.62498E-09  3328   0.822E-05    0.357E-05
DAV:  12    -0.132965534455E+04   -0.79352E-07   -0.41947E-09  3136   0.796E-05    0.273E-05
DAV:  13    -0.132965534462E+04   -0.67332E-07   -0.34071E-09  3072   0.617E-05    0.162E-05
DAV:  14    -0.132965534467E+04   -0.51718E-07   -0.23762E-09  3072   0.467E-05    0.991E-06
DAV:  15    -0.132965534468E+04   -0.13490E-07   -0.93562E-10  3104   0.328E-05    0.832E-06
DAV:  16    -0.132965534470E+04   -0.14508E-07   -0.42616E-10  3072   0.218E-05    0.496E-06
DAV:  17    -0.132965534470E+04   -0.48894E-08   -0.10527E-10  3072   0.165E-05
  26 F= -.13485812E+04 E0= -.13485812E+04  d E =0.296451E-03  mag=     0.0000
       N       E                     dE             d eps       ncg     rms          rms(c)
DAV:   1    -0.132965476116E+04    0.58353E-03   -0.82988E-02  5120   0.156E-01    0.138E-01
DAV:   2    -0.132965452353E+04    0.23763E-03   -0.16047E-03  5472   0.260E-02    0.743E-02
DAV:   3    -0.132965449219E+04    0.31340E-04   -0.42338E-04  5536   0.121E-02    0.252E-02
DAV:   4    -0.132965448879E+04    0.34067E-05   -0.49195E-05  6112   0.533E-03    0.101E-02
DAV:   5    -0.132965448998E+04   -0.11892E-05   -0.61666E-06  5568   0.198E-03    0.292E-03
DAV:   6    -0.132965449001E+04   -0.33760E-07   -0.10743E-06  5440   0.859E-04    0.173E-03
DAV:   7    -0.132965449009E+04   -0.81898E-07   -0.26283E-07  5248   0.463E-04    0.641E-04
DAV:   8    -0.132965449022E+04   -0.12858E-06   -0.45687E-08  3968   0.173E-04    0.249E-04
DAV:   9    -0.132965449032E+04   -0.98385E-07   -0.68167E-09  3264   0.839E-05    0.145E-04
DAV:  10    -0.132965449046E+04   -0.14197E-06   -0.73410E-09  3360   0.701E-05    0.696E-05
DAV:  11    -0.132965449055E+04   -0.92201E-07   -0.29176E-09  3232   0.529E-05    0.508E-05
DAV:  12    -0.132965449065E+04   -0.95548E-07   -0.41534E-09  3296   0.665E-05    0.302E-05
DAV:  13    -0.132965449070E+04   -0.56127E-07   -0.33004E-09  3232   0.736E-05    0.260E-05
DAV:  14    -0.132965449073E+04   -0.30355E-07   -0.17839E-09  3104   0.513E-05    0.161E-05
DAV:  15    -0.132965449076E+04   -0.30035E-07   -0.13316E-09  3072   0.363E-05    0.137E-05
DAV:  16    -0.132965449077E+04   -0.79162E-08   -0.47506E-10  3072   0.276E-05
  27 F= -.13485802E+04 E0= -.13485802E+04  d E =0.968351E-03  mag=     0.0000
       N       E                     dE             d eps       ncg     rms          rms(c)
DAV:   1    -0.132965573744E+04   -0.12467E-02   -0.76932E-02  5120   0.151E-01    0.114E-01
DAV:   2    -0.132965563717E+04    0.10027E-03   -0.10591E-03  5376   0.205E-02    0.634E-02
DAV:   3    -0.132965562193E+04    0.15238E-04   -0.26382E-04  5888   0.966E-03    0.199E-02
DAV:   4    -0.132965561860E+04    0.33343E-05   -0.37899E-05  6080   0.447E-03    0.760E-03
DAV:   5    -0.132965561924E+04   -0.64688E-06   -0.41320E-06  5408   0.159E-03    0.238E-03
DAV:   6    -0.132965561935E+04   -0.10928E-06   -0.63920E-07  5408   0.672E-04    0.141E-03
DAV:   7    -0.132965561945E+04   -0.94529E-07   -0.18301E-07  5088   0.378E-04    0.500E-04
DAV:   8    -0.132965561960E+04   -0.15035E-06   -0.34920E-08  3808   0.155E-04    0.221E-04
DAV:   9    -0.132965561971E+04   -0.11727E-06   -0.58729E-09  3296   0.735E-05    0.135E-04
DAV:  10    -0.132965561985E+04   -0.13689E-06   -0.56732E-09  3328   0.704E-05    0.690E-05
DAV:  11    -0.132965561998E+04   -0.13020E-06   -0.54612E-09  3232   0.697E-05    0.490E-05
DAV:  12    -0.132965562007E+04   -0.89582E-07   -0.44460E-09  3216   0.719E-05    0.379E-05
DAV:  13    -0.132965562011E+04   -0.44034E-07   -0.28440E-09  3104   0.597E-05    0.270E-05
DAV:  14    -0.132965562015E+04   -0.33731E-07   -0.23944E-09  3088   0.495E-05    0.156E-05
DAV:  15    -0.132965562016E+04   -0.12224E-07   -0.11991E-09  3072   0.384E-05    0.156E-05
DAV:  16    -0.132965562016E+04   -0.42783E-08   -0.44807E-10  2944   0.255E-05
  28 F= -.13485812E+04 E0= -.13485812E+04  d E =-.105409E-02  mag=    -0.0000
       N       E                     dE             d eps       ncg     rms          rms(c)
DAV:   1    -0.132965482971E+04    0.79045E-03   -0.66859E-02  5088   0.162E-01    0.886E-02
DAV:   2    -0.132965485077E+04   -0.21054E-04   -0.81857E-04  5600   0.230E-02    0.507E-02
DAV:   3    -0.132965486319E+04   -0.12423E-04   -0.11796E-04  5504   0.107E-02    0.188E-02
DAV:   4    -0.132965486349E+04   -0.30332E-06   -0.47494E-05  6240   0.810E-03    0.832E-03
DAV:   5    -0.132965486330E+04    0.19626E-06   -0.74857E-06  6528   0.310E-03    0.189E-03
DAV:   6    -0.132965486359E+04   -0.29142E-06   -0.85746E-07  5216   0.954E-04    0.153E-03
DAV:   7    -0.132965486382E+04   -0.23519E-06   -0.22099E-07  5696   0.602E-04    0.490E-04
DAV:   8    -0.132965486408E+04   -0.26062E-06   -0.70708E-08  4576   0.290E-04    0.344E-04
DAV:   9    -0.132965486434E+04   -0.26025E-06   -0.13871E-08  3616   0.145E-04    0.162E-04
DAV:  10    -0.132965486467E+04   -0.32505E-06   -0.22036E-08  3936   0.136E-04    0.128E-04
DAV:  11    -0.132965486485E+04   -0.18616E-06   -0.51593E-09  3264   0.816E-05    0.792E-05
DAV:  12    -0.132965486504E+04   -0.18852E-06   -0.85546E-09  3552   0.842E-05    0.699E-05
DAV:  13    -0.132965486512E+04   -0.73036E-07   -0.19427E-09  3136   0.560E-05    0.521E-05
DAV:  14    -0.132965486524E+04   -0.11965E-06   -0.56795E-09  3232   0.827E-05    0.655E-05
DAV:  15    -0.132965486526E+04   -0.21668E-07   -0.15823E-09  3136   0.628E-05    0.470E-05
DAV:  16    -0.132965486528E+04   -0.23909E-07   -0.11306E-09  3072   0.475E-05    0.165E-05
DAV:  17    -0.132965486530E+04   -0.22861E-07   -0.58552E-10  3072   0.346E-05    0.168E-05
DAV:  18    -0.132965486532E+04   -0.17651E-07   -0.22360E-10  3072   0.214E-05    0.134E-05
DAV:  19    -0.132965486533E+04   -0.57480E-08    0.29685E-11  2944   0.167E-05
  29 F= -.13485806E+04 E0= -.13485806E+04  d E =0.669392E-03  mag=    -0.0000
       N       E                     dE             d eps       ncg     rms          rms(c)
DAV:   1    -0.132965439943E+04    0.46589E-03   -0.60557E-02  5152   0.130E-01    0.705E-02
DAV:   2    -0.132965445594E+04   -0.56518E-04   -0.36476E-04  5600   0.146E-02    0.423E-02
DAV:   3    -0.132965448776E+04   -0.31818E-04   -0.34899E-05  6176   0.626E-03    0.723E-03
DAV:   4    -0.132965448885E+04   -0.10908E-05   -0.39538E-06  6464   0.219E-03    0.245E-03
DAV:   5    -0.132965448885E+04    0.21973E-08   -0.28828E-07  5568   0.622E-04    0.147E-03
DAV:   6    -0.132965448889E+04   -0.37340E-07   -0.20338E-07  5472   0.593E-04    0.585E-04
DAV:   7    -0.132965448893E+04   -0.43452E-07   -0.45837E-08  4576   0.315E-04    0.330E-04
DAV:   8    -0.132965448907E+04   -0.14002E-06   -0.26162E-08  3936   0.218E-04    0.197E-04
DAV:   9    -0.132965448918E+04   -0.10873E-06   -0.93882E-09  3488   0.139E-04    0.127E-04
DAV:  10    -0.132965448933E+04   -0.15205E-06   -0.10593E-08  3616   0.131E-04    0.844E-05
DAV:  11    -0.132965448944E+04   -0.10790E-06   -0.66534E-09  3424   0.954E-05    0.594E-05
DAV:  12    -0.132965448955E+04   -0.10920E-06   -0.75179E-09  3472   0.103E-04    0.439E-05
DAV:  13    -0.132965448960E+04   -0.53333E-07   -0.48338E-09  3136   0.102E-04    0.381E-05
DAV:  14    -0.132965448964E+04   -0.36438E-07   -0.34352E-09  3136   0.785E-05    0.181E-05
DAV:  15    -0.132965448967E+04   -0.26863E-07   -0.20264E-09  3136   0.526E-05    0.229E-05
DAV:  16    -0.132965448968E+04   -0.13621E-07   -0.79325E-10  3008   0.324E-05    0.149E-05
DAV:  17    -0.132965448969E+04   -0.97207E-08   -0.49994E-10  3072   0.280E-05
  30 F= -.13485804E+04 E0= -.13485804E+04  d E =0.163056E-03  mag=     0.0000
       N       E                     dE             d eps       ncg     rms          rms(c)
DAV:   1    -0.132965478675E+04   -0.29707E-03   -0.60503E-02  5120   0.129E-01    0.673E-02
DAV:   2    -0.132965483986E+04   -0.53107E-04   -0.34324E-04  5664   0.155E-02    0.414E-02
DAV:   3    -0.132965486833E+04   -0.28476E-04   -0.38745E-05  6368   0.786E-03    0.685E-03
DAV:   4    -0.132965486879E+04   -0.45689E-06   -0.49464E-06  6240   0.283E-03    0.301E-03
DAV:   5    -0.132965486856E+04    0.23314E-06   -0.89967E-07  6016   0.131E-03    0.139E-03
DAV:   6    -0.132965486845E+04    0.10754E-06   -0.17564E-07  6176   0.741E-04    0.809E-04
DAV:   7    -0.132965486849E+04   -0.37326E-07   -0.82586E-08  5440   0.551E-04    0.455E-04
DAV:   8    -0.132965486860E+04   -0.11511E-06   -0.59681E-08  5072   0.491E-04    0.249E-04
DAV:   9    -0.132965486880E+04   -0.19358E-06   -0.33256E-08  4304   0.319E-04    0.188E-04
DAV:  10    -0.132965486904E+04   -0.24711E-06   -0.13492E-08  3456   0.232E-04    0.113E-04
DAV:  11    -0.132965486928E+04   -0.23979E-06   -0.20734E-08  3904   0.198E-04    0.801E-05
DAV:  12    -0.132965486940E+04   -0.12010E-06   -0.91897E-09  3456   0.107E-04    0.622E-05
DAV:  13    -0.132965486950E+04   -0.93496E-07   -0.34753E-09  3072   0.611E-05    0.362E-05
DAV:  14    -0.132965486957E+04   -0.72076E-07   -0.34451E-09  3136   0.519E-05    0.229E-05
DAV:  15    -0.132965486961E+04   -0.37558E-07   -0.18644E-09  3072   0.495E-05    0.167E-05
DAV:  16    -0.132965486963E+04   -0.21842E-07   -0.14377E-09  3072   0.447E-05    0.125E-05
DAV:  17    -0.132965486964E+04   -0.10099E-07   -0.72032E-10  3072   0.312E-05    0.942E-06
DAV:  18    -0.132965486964E+04   -0.37107E-08   -0.37920E-10  3072   0.242E-05
  31 F= -.13485803E+04 E0= -.13485803E+04  d E =0.940849E-04  mag=     0.0000
       N       E                     dE             d eps       ncg     rms          rms(c)
DAV:   1    -0.132965518466E+04   -0.31502E-03   -0.71072E-02  5120   0.176E-01    0.104E-01
DAV:   2    -0.132965515565E+04    0.29007E-04   -0.11433E-03  5760   0.302E-02    0.586E-02
DAV:   3    -0.132965514967E+04    0.59820E-05   -0.24202E-04  5600   0.135E-02    0.231E-02
DAV:   4    -0.132965514654E+04    0.31247E-05   -0.49885E-05  6400   0.797E-03    0.973E-03
DAV:   5    -0.132965514656E+04   -0.18335E-07   -0.76762E-06  6432   0.300E-03    0.277E-03
DAV:   6    -0.132965514671E+04   -0.14983E-06   -0.97638E-07  5376   0.999E-04    0.166E-03
DAV:   7    -0.132965514713E+04   -0.42263E-06   -0.61287E-07  4800   0.901E-04    0.880E-04
DAV:   8    -0.132965514766E+04   -0.52249E-06   -0.71524E-08  4736   0.426E-04    0.523E-04
DAV:   9    -0.132965514828E+04   -0.62579E-06   -0.81232E-08  4480   0.390E-04    0.270E-04
DAV:  10    -0.132965514899E+04   -0.71061E-06   -0.43685E-08  4128   0.308E-04    0.184E-04
DAV:  11    -0.132965514952E+04   -0.52237E-06   -0.38390E-08  4320   0.238E-04    0.113E-04
DAV:  12    -0.132965514976E+04   -0.24278E-06   -0.89670E-09  3552   0.969E-05    0.906E-05
DAV:  13    -0.132965515001E+04   -0.25026E-06   -0.69587E-09  3360   0.740E-05    0.566E-05
DAV:  14    -0.132965515019E+04   -0.18046E-06   -0.55569E-09  3296   0.669E-05    0.426E-05
DAV:  15    -0.132965515031E+04   -0.12064E-06   -0.41113E-09  3168   0.702E-05    0.230E-05
DAV:  16    -0.132965515038E+04   -0.66837E-07   -0.30153E-09  3136   0.673E-05    0.231E-05
DAV:  17    -0.132965515042E+04   -0.44412E-07   -0.15845E-09  3072   0.457E-05    0.175E-05
DAV:  18    -0.132965515045E+04   -0.30283E-07   -0.10297E-09  3072   0.362E-05    0.147E-05
DAV:  19    -0.132965515046E+04   -0.78580E-08   -0.34201E-10  3072   0.224E-05
  32 F= -.13485809E+04 E0= -.13485809E+04  d E =-.581416E-03  mag=    -0.0000
       N       E                     dE             d eps       ncg     rms          rms(c)
DAV:   1    -0.132965563881E+04   -0.48836E-03   -0.74021E-02  4416   0.175E-01    0.899E-02
DAV:   2    -0.132965562228E+04    0.16523E-04   -0.65081E-04  4640   0.154E-02    0.537E-02
DAV:   3    -0.132965561885E+04    0.34331E-05   -0.25944E-04  4832   0.957E-03    0.149E-02
DAV:   4    -0.132965561400E+04    0.48518E-05   -0.25612E-05  4608   0.320E-03    0.955E-03
DAV:   5    -0.132965561355E+04    0.44655E-06   -0.14708E-05  4864   0.229E-03    0.163E-03
DAV:   6    -0.132965561414E+04   -0.58688E-06   -0.82841E-07  4736   0.610E-04    0.930E-04
DAV:   7    -0.132965561488E+04   -0.74589E-06   -0.15152E-07  4384   0.244E-04    0.596E-04
DAV:   8    -0.132965561575E+04   -0.86839E-06   -0.48348E-08  3840   0.148E-04    0.254E-04
DAV:   9    -0.132965561657E+04   -0.81449E-06   -0.33221E-08  3904   0.110E-04    0.187E-04
DAV:  10    -0.132965561748E+04   -0.91300E-06   -0.32972E-08  4000   0.118E-04    0.114E-04
DAV:  11    -0.132965561798E+04   -0.50094E-06   -0.15955E-08  3680   0.104E-04    0.759E-05
DAV:  12    -0.132965561830E+04   -0.32122E-06   -0.91458E-09  3488   0.859E-05    0.619E-05
DAV:  13    -0.132965561851E+04   -0.20610E-06   -0.52322E-09  3296   0.687E-05    0.468E-05
DAV:  14    -0.132965561866E+04   -0.15111E-06   -0.53204E-09  3296   0.685E-05    0.201E-05
DAV:  15    -0.132965561871E+04   -0.47061E-07   -0.22758E-09  3136   0.580E-05    0.231E-05
DAV:  16    -0.132965561873E+04   -0.21362E-07   -0.10153E-09  3104   0.408E-05    0.150E-05
DAV:  17    -0.132965561874E+04   -0.14770E-07   -0.59428E-10  3072   0.315E-05    0.115E-05
DAV:  18    -0.132965561875E+04   -0.43510E-08   -0.13673E-10  3072   0.186E-05
  33 F= -.13485814E+04 E0= -.13485814E+04  d E =-.461636E-03  mag=    -0.0000
       N       E                     dE             d eps       ncg     rms          rms(c)
DAV:   1    -0.132965499116E+04    0.62758E-03   -0.76601E-02  4416   0.175E-01    0.105E-01
DAV:   2    -0.132965492300E+04    0.68160E-04   -0.90868E-04  4928   0.187E-02    0.621E-02
DAV:   3    -0.132965490605E+04    0.16947E-04   -0.52766E-04  5280   0.139E-02    0.219E-02
DAV:   4    -0.132965489594E+04    0.10111E-04   -0.53900E-05  5024   0.461E-03    0.146E-02
DAV:   5    -0.132965489467E+04    0.12735E-05   -0.24275E-05  4928   0.294E-03    0.309E-03
DAV:   6    -0.132965489522E+04   -0.54904E-06   -0.21221E-06  5184   0.102E-03    0.120E-03
DAV:   7    -0.132965489589E+04   -0.67527E-06   -0.36411E-07  5056   0.385E-04    0.105E-03
DAV:   8    -0.132965489673E+04   -0.83969E-06   -0.89450E-08  4032   0.230E-04    0.337E-04
DAV:   9    -0.132965489747E+04   -0.73634E-06   -0.54087E-08  3840   0.173E-04    0.273E-04
DAV:  10    -0.132965489824E+04   -0.76981E-06   -0.31671E-08  3888   0.130E-04    0.116E-04
DAV:  11    -0.132965489872E+04   -0.48589E-06   -0.18285E-08  3648   0.106E-04    0.908E-05
DAV:  12    -0.132965489907E+04   -0.34660E-06   -0.12154E-08  3552   0.954E-05    0.675E-05
DAV:  13    -0.132965489929E+04   -0.21678E-06   -0.75011E-09  3360   0.791E-05    0.473E-05
DAV:  14    -0.132965489948E+04   -0.19232E-06   -0.74802E-09  3360   0.712E-05    0.253E-05
DAV:  15    -0.132965489956E+04   -0.80196E-07   -0.33419E-09  3136   0.587E-05    0.300E-05
DAV:  16    -0.132965489960E+04   -0.38388E-07   -0.16940E-09  3136   0.469E-05    0.214E-05
DAV:  17    -0.132965489963E+04   -0.30981E-07   -0.11295E-09  3104   0.376E-05    0.151E-05
DAV:  18    -0.132965489964E+04   -0.11350E-07   -0.36223E-10  3088   0.234E-05    0.129E-05
DAV:  19    -0.132965489965E+04   -0.70431E-08   -0.89984E-11  3040   0.188E-05
  34 F= -.13485806E+04 E0= -.13485806E+04  d E =0.747950E-03  mag=     0.0000
       N       E                     dE             d eps       ncg     rms          rms(c)
DAV:   1    -0.132965368712E+04    0.12125E-02   -0.29298E-01  4992   0.367E-01    0.154E-01
DAV:   2    -0.132965364159E+04    0.45533E-04   -0.33804E-03  5376   0.395E-02    0.921E-02
DAV:   3    -0.132965351984E+04    0.12175E-03   -0.79208E-04  5696   0.180E-02    0.274E-02
DAV:   4    -0.132965351961E+04    0.22899E-06   -0.11280E-04  6016   0.561E-03    0.139E-02
DAV:   5    -0.132965351825E+04    0.13621E-05   -0.19907E-05  5952   0.294E-03    0.547E-03
DAV:   6    -0.132965351917E+04   -0.91911E-06   -0.25548E-06  5376   0.131E-03    0.196E-03
DAV:   7    -0.132965352023E+04   -0.10683E-05   -0.45048E-07  5696   0.595E-04    0.908E-04
DAV:   8    -0.132965352192E+04   -0.16878E-05   -0.16945E-07  4800   0.325E-04    0.554E-04
DAV:   9    -0.132965352371E+04   -0.17905E-05   -0.85414E-08  4288   0.244E-04    0.315E-04
DAV:  10    -0.132965352584E+04   -0.21262E-05   -0.12965E-07  4320   0.247E-04    0.226E-04
DAV:  11    -0.132965352722E+04   -0.13827E-05   -0.71413E-08  4352   0.184E-04    0.151E-04
DAV:  12    -0.132965352801E+04   -0.78999E-06   -0.23989E-08  3760   0.118E-04    0.911E-05
DAV:  13    -0.132965352855E+04   -0.54126E-06   -0.18005E-08  3696   0.113E-04    0.611E-05
DAV:  14    -0.132965352877E+04   -0.22228E-06   -0.61621E-09  3232   0.104E-04    0.439E-05
DAV:  15    -0.132965352901E+04   -0.23861E-06   -0.74579E-09  3392   0.784E-05    0.260E-05
DAV:  16    -0.132965352912E+04   -0.10779E-06   -0.32751E-09  3136   0.648E-05    0.176E-05
DAV:  17    -0.132965352917E+04   -0.53697E-07   -0.20814E-09  3104   0.542E-05    0.118E-05
DAV:  18    -0.132965352920E+04   -0.21202E-07   -0.96751E-10  3072   0.370E-05    0.789E-06
DAV:  19    -0.132965352921E+04   -0.14901E-07   -0.34452E-10  3072   0.195E-05    0.457E-06
DAV:  20    -0.132965352922E+04   -0.54424E-08   -0.68898E-11  3072   0.147E-05
  35 F= -.13485792E+04 E0= -.13485792E+04  d E =0.139057E-02  mag=    -0.0000
       N       E                     dE             d eps       ncg     rms          rms(c)
DAV:   1    -0.132965281465E+04    0.71456E-03   -0.50369E-01  4992   0.452E-01    0.174E-01
DAV:   2    -0.132965266588E+04    0.14877E-03   -0.37997E-03  5376   0.414E-02    0.100E-01
DAV:   3    -0.132965253556E+04    0.13033E-03   -0.96913E-04  5568   0.187E-02    0.275E-02
DAV:   4    -0.132965253782E+04   -0.22639E-05   -0.15483E-04  6080   0.568E-03    0.137E-02
DAV:   5    -0.132965253750E+04    0.32361E-06   -0.17462E-05  6144   0.245E-03    0.572E-03
DAV:   6    -0.132965253850E+04   -0.10040E-05   -0.16604E-06  5440   0.116E-03    0.216E-03
DAV:   7    -0.132965253997E+04   -0.14710E-05   -0.44612E-07  5408   0.602E-04    0.779E-04
DAV:   8    -0.132965254176E+04   -0.17828E-05   -0.19095E-07  4864   0.336E-04    0.601E-04
DAV:   9    -0.132965254412E+04   -0.23619E-05   -0.10177E-07  4288   0.244E-04    0.313E-04
DAV:  10    -0.132965254645E+04   -0.23335E-05   -0.12575E-07  4384   0.233E-04    0.218E-04
DAV:  11    -0.132965254790E+04   -0.14453E-05   -0.56516E-08  4192   0.150E-04    0.156E-04
DAV:  12    -0.132965254879E+04   -0.89158E-06   -0.25401E-08  3808   0.107E-04    0.857E-05
DAV:  13    -0.132965254937E+04   -0.58020E-06   -0.17925E-08  3744   0.964E-05    0.593E-05
DAV:  14    -0.132965254961E+04   -0.24353E-06   -0.53228E-09  3264   0.782E-05    0.416E-05
DAV:  15    -0.132965254982E+04   -0.20674E-06   -0.55124E-09  3104   0.693E-05    0.243E-05
DAV:  16    -0.132965254994E+04   -0.12216E-06   -0.37372E-09  3072   0.634E-05    0.161E-05
DAV:  17    -0.132965255000E+04   -0.54177E-07   -0.21225E-09  3072   0.518E-05    0.112E-05
DAV:  18    -0.132965255001E+04   -0.19369E-07   -0.97318E-10  3072   0.384E-05    0.923E-06
DAV:  19    -0.132965255003E+04   -0.11874E-07   -0.33257E-10  3072   0.207E-05    0.475E-06
DAV:  20    -0.132965255003E+04   -0.80472E-08   -0.66385E-11  3072   0.159E-05
  36 F= -.13485783E+04 E0= -.13485783E+04  d E =0.920867E-03  mag=    -0.0000
       N       E                     dE             d eps       ncg     rms          rms(c)
DAV:   1    -0.132965432118E+04   -0.17711E-02   -0.47357E-01  4992   0.480E-01    0.143E-01
DAV:   2    -0.132965433339E+04   -0.12218E-04   -0.28314E-03  5728   0.341E-02    0.881E-02
DAV:   3    -0.132965426963E+04    0.63764E-04   -0.50762E-04  5568   0.154E-02    0.163E-02
DAV:   4    -0.132965428140E+04   -0.11769E-04   -0.11664E-04  6144   0.490E-03    0.890E-03
DAV:   5    -0.132965428146E+04   -0.61656E-07   -0.65900E-06  5856   0.180E-03    0.472E-03
DAV:   6    -0.132965428285E+04   -0.13916E-05   -0.12687E-06  5408   0.825E-04    0.125E-03
DAV:   7    -0.132965428395E+04   -0.10946E-05   -0.22188E-07  5120   0.370E-04    0.482E-04
DAV:   8    -0.132965428499E+04   -0.10380E-05   -0.48984E-08  3936   0.170E-04    0.308E-04
DAV:   9    -0.132965428618E+04   -0.11907E-05   -0.36229E-08  4032   0.135E-04    0.173E-04
DAV:  10    -0.132965428725E+04   -0.10743E-05   -0.34845E-08  3904   0.121E-04    0.112E-04
DAV:  11    -0.132965428798E+04   -0.72655E-06   -0.22373E-08  3744   0.999E-05    0.781E-05
DAV:  12    -0.132965428842E+04   -0.44118E-06   -0.12847E-08  3616   0.871E-05    0.480E-05
DAV:  13    -0.132965428864E+04   -0.22170E-06   -0.60570E-09  3264   0.724E-05    0.302E-05
DAV:  14    -0.132965428876E+04   -0.11963E-06   -0.36593E-09  3072   0.557E-05    0.203E-05
DAV:  15    -0.132965428884E+04   -0.76572E-07   -0.25275E-09  3072   0.485E-05    0.118E-05
DAV:  16    -0.132965428887E+04   -0.35216E-07   -0.17469E-09  3072   0.472E-05    0.928E-06
DAV:  17    -0.132965428888E+04   -0.81054E-08   -0.66884E-10  3072   0.302E-05
  37 F= -.13485799E+04 E0= -.13485799E+04  d E =-.161360E-02  mag=     0.0000
       N       E                     dE             d eps       ncg     rms          rms(c)
DAV:   1    -0.132965342900E+04    0.85987E-03   -0.46779E-01  5040   0.501E-01    0.136E-01
DAV:   2    -0.132965356681E+04   -0.13781E-03   -0.41477E-03  5504   0.419E-02    0.887E-02
DAV:   3    -0.132965347849E+04    0.88318E-04   -0.47968E-04  5728   0.154E-02    0.217E-02
DAV:   4    -0.132965349106E+04   -0.12568E-04   -0.12436E-04  6336   0.525E-03    0.881E-03
DAV:   5    -0.132965349112E+04   -0.58542E-07   -0.71569E-06  5664   0.173E-03    0.460E-03
DAV:   6    -0.132965349189E+04   -0.77093E-06   -0.15618E-06  5440   0.866E-04    0.141E-03
DAV:   7    -0.132965349246E+04   -0.56546E-06   -0.20823E-07  5280   0.431E-04    0.624E-04
DAV:   8    -0.132965349304E+04   -0.58392E-06   -0.78551E-08  3968   0.239E-04    0.309E-04
DAV:   9    -0.132965349356E+04   -0.51729E-06   -0.20480E-08  3776   0.138E-04    0.218E-04
DAV:  10    -0.132965349417E+04   -0.60667E-06   -0.19482E-08  3744   0.130E-04    0.119E-04
DAV:  11    -0.132965349481E+04   -0.64800E-06   -0.34945E-08  4256   0.154E-04    0.903E-05
DAV:  12    -0.132965349505E+04   -0.23615E-06   -0.64819E-09  3424   0.808E-05    0.655E-05
DAV:  13    -0.132965349528E+04   -0.23523E-06   -0.67162E-09  3392   0.651E-05    0.380E-05
DAV:  14    -0.132965349543E+04   -0.14182E-06   -0.39093E-09  3168   0.519E-05    0.301E-05
DAV:  15    -0.132965349551E+04   -0.81272E-07   -0.26848E-09  3104   0.469E-05    0.180E-05
DAV:  16    -0.132965349555E+04   -0.45577E-07   -0.18565E-09  3072   0.448E-05    0.139E-05
DAV:  17    -0.132965349558E+04   -0.24855E-07   -0.11316E-09  3104   0.385E-05    0.977E-06
DAV:  18    -0.132965349559E+04   -0.14727E-07   -0.57299E-10  3072   0.294E-05    0.677E-06
DAV:  19    -0.132965349560E+04   -0.39145E-08   -0.72637E-11  2944   0.158E-05
  38 F= -.13485793E+04 E0= -.13485793E+04  d E =0.601282E-03  mag=     0.0000
       N       E                     dE             d eps       ncg     rms          rms(c)
DAV:   1    -0.132965372390E+04   -0.22831E-03   -0.49952E-01  4992   0.457E-01    0.146E-01
DAV:   2    -0.132965360918E+04    0.11472E-03   -0.27167E-03  5184   0.365E-02    0.918E-02
DAV:   3    -0.132965348150E+04    0.12768E-03   -0.80591E-04  5280   0.172E-02    0.122E-02
DAV:   4    -0.132965348876E+04   -0.72682E-05   -0.96811E-05  5152   0.423E-03    0.816E-03
DAV:   5    -0.132965348903E+04   -0.26340E-06   -0.51194E-06  5984   0.139E-03    0.479E-03
DAV:   6    -0.132965348966E+04   -0.63615E-06   -0.12371E-06  5248   0.961E-04    0.143E-03
DAV:   7    -0.132965349029E+04   -0.62316E-06   -0.37784E-07  5152   0.468E-04    0.555E-04
DAV:   8    -0.132965349102E+04   -0.73700E-06   -0.74560E-08  4672   0.251E-04    0.353E-04
DAV:   9    -0.132965349190E+04   -0.87409E-06   -0.30462E-08  3904   0.167E-04    0.200E-04
DAV:  10    -0.132965349296E+04   -0.10630E-05   -0.59431E-08  4224   0.206E-04    0.139E-04
DAV:  11    -0.132965349354E+04   -0.57679E-06   -0.20288E-08  3872   0.136E-04    0.894E-05
DAV:  12    -0.132965349391E+04   -0.37017E-06   -0.88823E-09  3552   0.982E-05    0.619E-05
DAV:  13    -0.132965349419E+04   -0.28517E-06   -0.78779E-09  3488   0.854E-05    0.469E-05
DAV:  14    -0.132965349434E+04   -0.15144E-06   -0.44143E-09  3200   0.820E-05    0.337E-05
DAV:  15    -0.132965349445E+04   -0.10607E-06   -0.37033E-09  3104   0.715E-05    0.182E-05
DAV:  16    -0.132965349451E+04   -0.60885E-07   -0.23230E-09  3104   0.561E-05    0.182E-05
DAV:  17    -0.132965349453E+04   -0.19078E-07   -0.97131E-10  3104   0.379E-05    0.148E-05
DAV:  18    -0.132965349454E+04   -0.14596E-07   -0.45824E-10  3072   0.274E-05    0.622E-06
DAV:  19    -0.132965349455E+04   -0.63301E-08   -0.16709E-10  3072   0.197E-05
  39 F= -.13485792E+04 E0= -.13485792E+04  d E =0.820503E-04  mag=     0.0000
       N       E                     dE             d eps       ncg     rms          rms(c)
DAV:   1    -0.132965372288E+04   -0.22834E-03   -0.49484E-01  4992   0.501E-01    0.147E-01
DAV:   2    -0.132965363971E+04    0.83172E-04   -0.32937E-03  5344   0.408E-02    0.906E-02
DAV:   3    -0.132965352617E+04    0.11354E-03   -0.81710E-04  5776   0.187E-02    0.213E-02
DAV:   4    -0.132965353106E+04   -0.48880E-05   -0.13763E-04  6080   0.599E-03    0.935E-03
DAV:   5    -0.132965353222E+04   -0.11571E-05   -0.99840E-06  5824   0.218E-03    0.447E-03
DAV:   6    -0.132965353279E+04   -0.56940E-06   -0.14291E-06  5472   0.119E-03    0.207E-03
DAV:   7    -0.132965353367E+04   -0.88634E-06   -0.45037E-07  5184   0.572E-04    0.695E-04
DAV:   8    -0.132965353436E+04   -0.68865E-06   -0.93924E-08  4368   0.252E-04    0.370E-04
DAV:   9    -0.132965353537E+04   -0.10104E-05   -0.47149E-08  4224   0.173E-04    0.232E-04
DAV:  10    -0.132965353608E+04   -0.70418E-06   -0.22961E-08  3808   0.140E-04    0.147E-04
DAV:  11    -0.132965353700E+04   -0.92138E-06   -0.47313E-08  4272   0.172E-04    0.901E-05
DAV:  12    -0.132965353738E+04   -0.38327E-06   -0.11271E-08  3728   0.942E-05    0.697E-05
DAV:  13    -0.132965353763E+04   -0.25243E-06   -0.59001E-09  3456   0.696E-05    0.461E-05
DAV:  14    -0.132965353784E+04   -0.20671E-06   -0.54948E-09  3392   0.711E-05    0.288E-05
DAV:  15    -0.132965353794E+04   -0.10167E-06   -0.34175E-09  3136   0.652E-05    0.204E-05
DAV:  16    -0.132965353800E+04   -0.61933E-07   -0.23958E-09  3072   0.521E-05    0.129E-05
DAV:  17    -0.132965353803E+04   -0.25568E-07   -0.13618E-09  3072   0.442E-05    0.905E-06
DAV:  18    -0.132965353804E+04   -0.89931E-08   -0.56052E-10  3072   0.298E-05
  40 F= -.13485792E+04 E0= -.13485792E+04  d E =0.739967E-04  mag=    -0.0000
       N       E                     dE             d eps       ncg     rms          rms(c)
DAV:   1    -0.132965258254E+04    0.95549E-03   -0.49791E-01  4992   0.493E-01    0.156E-01
DAV:   2    -0.132965258792E+04   -0.53876E-05   -0.46174E-03  5248   0.468E-02    0.981E-02
DAV:   3    -0.132965242918E+04    0.15874E-03   -0.99698E-04  5408   0.197E-02    0.284E-02
DAV:   4    -0.132965243292E+04   -0.37353E-05   -0.16066E-04  5632   0.606E-03    0.147E-02
DAV:   5    -0.132965243215E+04    0.77175E-06   -0.25467E-05  5632   0.335E-03    0.556E-03
DAV:   6    -0.132965243264E+04   -0.49685E-06   -0.25243E-06  5376   0.116E-03    0.238E-03
DAV:   7    -0.132965243352E+04   -0.87530E-06   -0.59694E-07  4768   0.539E-04    0.616E-04
DAV:   8    -0.132965243441E+04   -0.89609E-06   -0.18037E-07  5248   0.301E-04    0.452E-04
DAV:   9    -0.132965243512E+04   -0.70139E-06   -0.18751E-08  3776   0.120E-04    0.259E-04
DAV:  10    -0.132965243642E+04   -0.13014E-05   -0.69256E-08  4256   0.166E-04    0.170E-04
DAV:  11    -0.132965243695E+04   -0.53021E-06   -0.14701E-08  3680   0.105E-04    0.140E-04
DAV:  12    -0.132965243753E+04   -0.57976E-06   -0.20924E-08  3936   0.110E-04    0.911E-05
DAV:  13    -0.132965243785E+04   -0.31853E-06   -0.94505E-09  3360   0.108E-04    0.542E-05
DAV:  14    -0.132965243806E+04   -0.21781E-06   -0.90931E-09  3424   0.104E-04    0.406E-05
DAV:  15    -0.132965243815E+04   -0.84314E-07   -0.29689E-09  3136   0.720E-05    0.326E-05
DAV:  16    -0.132965243826E+04   -0.10758E-06   -0.32138E-09  3104   0.653E-05    0.317E-05
DAV:  17    -0.132965243829E+04   -0.37660E-07   -0.16066E-09  3072   0.564E-05    0.259E-05
DAV:  18    -0.132965243831E+04   -0.15119E-07   -0.58931E-10  3072   0.348E-05    0.933E-06
DAV:  19    -0.132965243832E+04   -0.10565E-07   -0.16401E-10  3072   0.211E-05    0.143E-05
DAV:  20    -0.132965243833E+04   -0.61118E-08    0.30094E-11  3072   0.131E-05
  41 F= -.13485783E+04 E0= -.13485783E+04  d E =0.840133E-03  mag=     0.0000
       N       E                     dE             d eps       ncg     rms          rms(c)
DAV:   1    -0.132965328296E+04   -0.84464E-03   -0.50429E-01  4992   0.458E-01    0.167E-01
DAV:   2    -0.132965310644E+04    0.17652E-03   -0.39167E-03  5312   0.429E-02    0.960E-02
DAV:   3    -0.132965296203E+04    0.14441E-03   -0.10048E-03  5440   0.191E-02    0.295E-02
DAV:   4    -0.132965295967E+04    0.23606E-05   -0.14909E-04  5824   0.587E-03    0.138E-02
DAV:   5    -0.132965296010E+04   -0.43288E-06   -0.25132E-05  6112   0.288E-03    0.447E-03
DAV:   6    -0.132965296051E+04   -0.40919E-06   -0.24448E-06  4928   0.109E-03    0.238E-03
DAV:   7    -0.132965296131E+04   -0.79558E-06   -0.48298E-07  5088   0.614E-04    0.798E-04
DAV:   8    -0.132965296218E+04   -0.87377E-06   -0.15373E-07  5056   0.315E-04    0.428E-04
DAV:   9    -0.132965296321E+04   -0.10271E-05   -0.41285E-08  4176   0.185E-04    0.274E-04
DAV:  10    -0.132965296452E+04   -0.13162E-05   -0.59706E-08  4384   0.224E-04    0.151E-04
DAV:  11    -0.132965296539E+04   -0.86805E-06   -0.35383E-08  4128   0.165E-04    0.118E-04
DAV:  12    -0.132965296596E+04   -0.57269E-06   -0.17479E-08  3792   0.120E-04    0.902E-05
DAV:  13    -0.132965296635E+04   -0.38880E-06   -0.13359E-08  3728   0.105E-04    0.509E-05
DAV:  14    -0.132965296651E+04   -0.15766E-06   -0.49074E-09  3264   0.793E-05    0.312E-05
DAV:  15    -0.132965296662E+04   -0.10944E-06   -0.40823E-09  3136   0.650E-05    0.234E-05
DAV:  16    -0.132965296668E+04   -0.55777E-07   -0.24421E-09  3072   0.610E-05    0.179E-05
DAV:  17    -0.132965296670E+04   -0.19441E-07   -0.14368E-09  3072   0.480E-05    0.980E-06
DAV:  18    -0.132965296670E+04   -0.67084E-08   -0.50523E-10  3072   0.293E-05
  42 F= -.13485786E+04 E0= -.13485786E+04  d E =-.323888E-03  mag=    -0.0000
       N       E                     dE             d eps       ncg     rms          rms(c)
DAV:   1    -0.132965563930E+04   -0.26726E-02   -0.48911E-01  5056   0.468E-01    0.135E-01
DAV:   2    -0.132965564062E+04   -0.13222E-05   -0.40393E-03  5664   0.384E-02    0.791E-02
DAV:   3    -0.132965552633E+04    0.11429E-03   -0.52789E-04  5696   0.181E-02    0.272E-02
DAV:   4    -0.132965553420E+04   -0.78721E-05   -0.13388E-04  6048   0.703E-03    0.117E-02
DAV:   5    -0.132965553281E+04    0.13979E-05   -0.15190E-05  6208   0.393E-03    0.527E-03
DAV:   6    -0.132965553327E+04   -0.45830E-06   -0.26640E-06  6176   0.141E-03    0.228E-03
DAV:   7    -0.132965553392E+04   -0.65469E-06   -0.48118E-07  6080   0.727E-04    0.104E-03
DAV:   8    -0.132965553491E+04   -0.99454E-06   -0.15630E-07  5280   0.453E-04    0.459E-04
DAV:   9    -0.132965553584E+04   -0.92608E-06   -0.39924E-08  4160   0.246E-04    0.304E-04
DAV:  10    -0.132965553721E+04   -0.13685E-05   -0.65104E-08  4304   0.261E-04    0.205E-04
DAV:  11    -0.132965553828E+04   -0.10685E-05   -0.55207E-08  4384   0.240E-04    0.134E-04
DAV:  12    -0.132965553907E+04   -0.79589E-06   -0.33832E-08  3936   0.177E-04    0.940E-05
DAV:  13    -0.132965553945E+04   -0.37499E-06   -0.10610E-08  3584   0.938E-05    0.685E-05
DAV:  14    -0.132965553973E+04   -0.28123E-06   -0.71497E-09  3328   0.729E-05    0.394E-05
DAV:  15    -0.132965553990E+04   -0.17355E-06   -0.55460E-09  3264   0.702E-05    0.300E-05
DAV:  16    -0.132965553999E+04   -0.88548E-07   -0.30556E-09  3072   0.600E-05    0.194E-05
DAV:  17    -0.132965554006E+04   -0.66415E-07   -0.21435E-09  3072   0.458E-05    0.147E-05
DAV:  18    -0.132965554009E+04   -0.29904E-07   -0.10375E-09  3072   0.367E-05    0.113E-05
DAV:  19    -0.132965554010E+04   -0.12136E-07   -0.42647E-10  3072   0.252E-05    0.720E-06
DAV:  20    -0.132965554011E+04   -0.78144E-08   -0.14304E-10  3072   0.166E-05
  43 F= -.13485813E+04 E0= -.13485813E+04  d E =-.262659E-02  mag=    -0.0000
