       N       E                     dE             d eps       ncg     rms          rms(c)
DAV:   1    -0.132780683627E+04   -0.13278E+04   -0.13046E+00  6304   0.972E-01    0.947E-01
DAV:   2    -0.132955188834E+04   -0.17451E+01   -0.11637E+00  6112   0.943E-01    0.404E-01
DAV:   3    -0.132956167063E+04   -0.97823E-02   -0.40245E-02  6720   0.224E-01    0.275E-01
DAV:   4    -0.132956171008E+04   -0.39454E-04   -0.20406E-03  5504   0.557E-02    0.223E-01
DAV:   5    -0.132956171713E+04   -0.70526E-05   -0.19726E-04  6848   0.177E-02    0.188E-01
DAV:   6    -0.132956172928E+04   -0.12151E-04   -0.23179E-05  7168   0.708E-03    0.162E-01
DAV:   7    -0.132956173758E+04   -0.82992E-05   -0.22616E-05  6720   0.789E-03    0.130E-01
DAV:   8    -0.132956174338E+04   -0.57951E-05   -0.16215E-05  6976   0.627E-03    0.107E-01
DAV:   9    -0.132956174819E+04   -0.48089E-05   -0.54023E-06  7200   0.353E-03    0.902E-02
DAV:  10    -0.132956175430E+04   -0.61091E-05   -0.17652E-05  6688   0.706E-03    0.567E-02
DAV:  11    -0.132956175864E+04   -0.43405E-05   -0.33557E-05  6592   0.933E-03    0.176E-02
DAV:  12    -0.132956175975E+04   -0.11110E-05   -0.46600E-06  7104   0.273E-03    0.116E-02
DAV:  13    -0.132956175992E+04   -0.17401E-06   -0.70019E-07  6336   0.134E-03    0.612E-03
DAV:  14    -0.132956175989E+04    0.25917E-07   -0.45689E-07  6896   0.945E-04    0.312E-03
DAV:  15    -0.132956175983E+04    0.69020E-07   -0.66859E-08  5008   0.423E-04    0.110E-03
DAV:  16    -0.132956175979E+04    0.32873E-07   -0.14764E-08  3232   0.227E-04    0.439E-04
DAV:  17    -0.132956175978E+04    0.11030E-07   -0.11733E-08  3136   0.147E-04    0.353E-04
DAV:  18    -0.132956175978E+04    0.44965E-08   -0.45146E-09  3136   0.993E-05
   1 F= -.13485303E+04 E0= -.13485303E+04  d E =-.134853E+04  mag=    -0.0000
       N       E                     dE             d eps       ncg     rms          rms(c)
DAV:   1    -0.132956088998E+04    0.86981E-03   -0.58288E-01  5120   0.835E-01    0.105E-01
DAV:   2    -0.132956119402E+04   -0.30405E-03   -0.48253E-03  5600   0.740E-02    0.676E-02
DAV:   3    -0.132956113616E+04    0.57866E-04   -0.48689E-04  6432   0.338E-02    0.323E-02
DAV:   4    -0.132956113523E+04    0.92603E-06   -0.10847E-04  5760   0.157E-02    0.142E-02
DAV:   5    -0.132956113266E+04    0.25708E-05   -0.32480E-05  5888   0.858E-03    0.695E-03
DAV:   6    -0.132956113225E+04    0.41028E-06   -0.45347E-06  5696   0.269E-03    0.380E-03
DAV:   7    -0.132956113210E+04    0.15394E-06   -0.25316E-06  6336   0.241E-03    0.202E-03
DAV:   8    -0.132956113206E+04    0.39785E-07   -0.43224E-07  6016   0.106E-03    0.114E-03
DAV:   9    -0.132956113214E+04   -0.79221E-07   -0.16960E-07  5696   0.712E-04    0.508E-04
DAV:  10    -0.132956113227E+04   -0.13279E-06   -0.63388E-08  5040   0.510E-04    0.408E-04
DAV:  11    -0.132956113246E+04   -0.18843E-06   -0.44107E-08  4560   0.443E-04    0.205E-04
DAV:  12    -0.132956113267E+04   -0.21122E-06   -0.34605E-08  4576   0.320E-04    0.181E-04
DAV:  13    -0.132956113277E+04   -0.97803E-07   -0.96537E-09  3552   0.142E-04    0.121E-04
DAV:  14    -0.132956113289E+04   -0.12219E-06   -0.61271E-09  3232   0.965E-05    0.663E-05
DAV:  15    -0.132956113301E+04   -0.12114E-06   -0.61029E-09  3264   0.756E-05    0.564E-05
DAV:  16    -0.132956113307E+04   -0.56883E-07   -0.20518E-09  3136   0.553E-05    0.284E-05
DAV:  17    -0.132956113313E+04   -0.59954E-07   -0.24165E-09  3136   0.504E-05    0.303E-05
DAV:  18    -0.132956113315E+04   -0.25058E-07   -0.59023E-10  3136   0.347E-05    0.275E-05
DAV:  19    -0.132956113317E+04   -0.17899E-07   -0.34863E-10  3136   0.310E-05    0.109E-05
DAV:  20    -0.132956113318E+04   -0.10594E-07    0.26344E-10  3136   0.239E-05    0.167E-05
DAV:  21    -0.132956113319E+04   -0.56025E-08    0.36153E-10  3136   0.165E-05
   2 F= -.13485299E+04 E0= -.13485299E+04  d E =0.456212E-03  mag=     0.0000
       N       E                     dE             d eps       ncg     rms          rms(c)
DAV:   1    -0.132956052176E+04    0.61142E-03   -0.11622E+00  5120   0.117E+00    0.121E-01
DAV:   2    -0.132956123142E+04   -0.70966E-03   -0.97044E-03  5440   0.998E-02    0.711E-02
DAV:   3    -0.132956115451E+04    0.76916E-04   -0.81048E-04  6304   0.337E-02    0.381E-02
DAV:   4    -0.132956113605E+04    0.18455E-04   -0.18907E-04  5504   0.192E-02    0.147E-02
DAV:   5    -0.132956113529E+04    0.76005E-06   -0.42119E-05  5568   0.893E-03    0.946E-03
DAV:   6    -0.132956113532E+04   -0.26717E-07   -0.90684E-06  6848   0.331E-03    0.534E-03
DAV:   7    -0.132956113501E+04    0.30592E-06   -0.24767E-06  6752   0.226E-03    0.282E-03
DAV:   8    -0.132956113507E+04   -0.59721E-07   -0.61994E-07  6272   0.118E-03    0.145E-03
DAV:   9    -0.132956113516E+04   -0.92754E-07   -0.22022E-07  6016   0.710E-04    0.640E-04
DAV:  10    -0.132956113535E+04   -0.18567E-06   -0.50272E-08  4800   0.357E-04    0.326E-04
DAV:  11    -0.132956113559E+04   -0.23641E-06   -0.22860E-08  3968   0.286E-04    0.218E-04
DAV:  12    -0.132956113580E+04   -0.21439E-06   -0.24456E-08  4224   0.246E-04    0.116E-04
DAV:  13    -0.132956113595E+04   -0.14924E-06   -0.76334E-09  3264   0.134E-04    0.100E-04
DAV:  14    -0.132956113608E+04   -0.12619E-06   -0.49753E-09  3232   0.932E-05    0.587E-05
DAV:  15    -0.132956113616E+04   -0.81476E-07   -0.45957E-09  3200   0.761E-05    0.398E-05
DAV:  16    -0.132956113621E+04   -0.47468E-07   -0.21495E-09  3136   0.496E-05    0.338E-05
DAV:  17    -0.132956113623E+04   -0.22352E-07   -0.86712E-10  3136   0.378E-05    0.169E-05
DAV:  18    -0.132956113624E+04   -0.16356E-07   -0.67872E-10  3136   0.361E-05    0.235E-05
DAV:  19    -0.132956113625E+04   -0.35216E-08    0.86769E-11  3136   0.260E-05
   3 F= -.13485298E+04 E0= -.13485298E+04  d E =0.700021E-04  mag=     0.0000
       N       E                     dE             d eps       ncg     rms          rms(c)
DAV:   1    -0.132956080658E+04    0.32967E-03   -0.11546E+00  5120   0.119E+00    0.142E-01
DAV:   2    -0.132956137170E+04   -0.56512E-03   -0.98640E-03  5600   0.111E-01    0.102E-01
DAV:   3    -0.132956122835E+04    0.14335E-03   -0.11632E-03  6176   0.515E-02    0.477E-02
DAV:   4    -0.132956123231E+04   -0.39595E-05   -0.21185E-04  6272   0.199E-02    0.211E-02
DAV:   5    -0.132956122667E+04    0.56402E-05   -0.52319E-05  5632   0.129E-02    0.909E-03
DAV:   6    -0.132956122637E+04    0.29884E-06   -0.74241E-06  5632   0.405E-03    0.421E-03
DAV:   7    -0.132956122660E+04   -0.23354E-06   -0.38498E-06  6368   0.294E-03    0.275E-03
DAV:   8    -0.132956122678E+04   -0.17730E-06   -0.71734E-07  6240   0.132E-03    0.141E-03
DAV:   9    -0.132956122737E+04   -0.58953E-06   -0.40327E-07  5984   0.112E-03    0.859E-04
DAV:  10    -0.132956122800E+04   -0.63560E-06   -0.14774E-07  5856   0.728E-04    0.674E-04
DAV:  11    -0.132956122860E+04   -0.59155E-06   -0.90203E-08  5408   0.513E-04    0.283E-04
DAV:  12    -0.132956122941E+04   -0.81268E-06   -0.55988E-08  4576   0.441E-04    0.290E-04
DAV:  13    -0.132956122981E+04   -0.39916E-06   -0.32689E-08  4288   0.230E-04    0.219E-04
DAV:  14    -0.132956123010E+04   -0.29101E-06   -0.92014E-09  3328   0.118E-04    0.107E-04
DAV:  15    -0.132956123044E+04   -0.34149E-06   -0.17318E-08  3712   0.111E-04    0.856E-05
DAV:  16    -0.132956123057E+04   -0.13497E-06   -0.32299E-09  3136   0.774E-05    0.445E-05
DAV:  17    -0.132956123073E+04   -0.15568E-06   -0.66674E-09  3328   0.761E-05    0.646E-05
DAV:  18    -0.132956123078E+04   -0.52911E-07   -0.16093E-09  3136   0.665E-05    0.393E-05
DAV:  19    -0.132956123083E+04   -0.43845E-07   -0.19179E-09  3136   0.670E-05    0.343E-05
DAV:  20    -0.132956123085E+04   -0.18670E-07   -0.78823E-10  3136   0.586E-05    0.289E-05
DAV:  21    -0.132956123086E+04   -0.11802E-07    0.10183E-10  3136   0.323E-05    0.117E-05
DAV:  22    -0.132956123086E+04   -0.64319E-08    0.55038E-10  3136   0.202E-05
   4 F= -.13485301E+04 E0= -.13485301E+04  d E =-.315995E-03  mag=    -0.0000
       N       E                     dE             d eps       ncg     rms          rms(c)
DAV:   1    -0.132955952096E+04    0.17099E-02   -0.11623E+00  5120   0.118E+00    0.169E-01
DAV:   2    -0.132956036222E+04   -0.84126E-03   -0.11859E-02  5568   0.113E-01    0.114E-01
DAV:   3    -0.132956019053E+04    0.17169E-03   -0.11068E-03  6304   0.455E-02    0.555E-02
DAV:   4    -0.132956018204E+04    0.84890E-05   -0.27250E-04  6336   0.216E-02    0.210E-02
DAV:   5    -0.132956017835E+04    0.36936E-05   -0.45910E-05  6272   0.931E-03    0.112E-02
DAV:   6    -0.132956017576E+04    0.25913E-05   -0.54098E-06  6048   0.371E-03    0.564E-03
DAV:   7    -0.132956017450E+04    0.12553E-05   -0.36871E-06  6752   0.317E-03    0.207E-03
DAV:   8    -0.132956017419E+04    0.31169E-06   -0.86843E-07  6336   0.163E-03    0.129E-03
DAV:   9    -0.132956017419E+04   -0.35361E-08   -0.36226E-07  6400   0.143E-03    0.873E-04
DAV:  10    -0.132956017466E+04   -0.46924E-06   -0.34926E-07  6560   0.135E-03    0.552E-04
DAV:  11    -0.132956017545E+04   -0.78291E-06   -0.29897E-07  5952   0.850E-04    0.463E-04
DAV:  12    -0.132956017596E+04   -0.51585E-06   -0.61809E-08  5088   0.300E-04    0.334E-04
DAV:  13    -0.132956017645E+04   -0.48566E-06   -0.15786E-08  3584   0.155E-04    0.191E-04
DAV:  14    -0.132956017719E+04   -0.74264E-06   -0.39050E-08  4192   0.163E-04    0.118E-04
DAV:  15    -0.132956017747E+04   -0.27772E-06   -0.60914E-09  3328   0.872E-05    0.689E-05
DAV:  16    -0.132956017779E+04   -0.32599E-06   -0.11963E-08  3488   0.817E-05    0.561E-05
DAV:  17    -0.132956017796E+04   -0.16684E-06   -0.45322E-09  3232   0.746E-05    0.357E-05
DAV:  18    -0.132956017804E+04   -0.82189E-07   -0.36886E-09  3200   0.667E-05    0.369E-05
DAV:  19    -0.132956017807E+04   -0.29220E-07   -0.12292E-09  3136   0.584E-05    0.240E-05
DAV:  20    -0.132956017809E+04   -0.20271E-07   -0.61324E-10  3136   0.470E-05    0.144E-05
DAV:  21    -0.132956017810E+04   -0.74942E-08    0.16750E-10  3136   0.315E-05
   5 F= -.13485286E+04 E0= -.13485286E+04  d E =0.150762E-02  mag=     0.0000
       N       E                     dE             d eps       ncg     rms          rms(c)
DAV:   1    -0.132955918989E+04    0.98820E-03   -0.11777E+00  5120   0.106E+00    0.106E-01
DAV:   2    -0.132955944957E+04   -0.25968E-03   -0.57266E-03  5600   0.771E-02    0.646E-02
DAV:   3    -0.132955935381E+04    0.95760E-04   -0.61517E-04  6336   0.267E-02    0.206E-02
DAV:   4    -0.132955935752E+04   -0.37107E-05   -0.90594E-05  6016   0.941E-03    0.138E-02
DAV:   5    -0.132955935666E+04    0.85877E-06   -0.70419E-06  6112   0.302E-03    0.691E-03
DAV:   6    -0.132955935636E+04    0.29891E-06   -0.17388E-06  6752   0.221E-03    0.211E-03
DAV:   7    -0.132955935632E+04    0.43146E-07   -0.47054E-07  6256   0.901E-04    0.106E-03
DAV:   8    -0.132955935644E+04   -0.11749E-06   -0.13821E-07  5968   0.471E-04    0.742E-04
DAV:   9    -0.132955935655E+04   -0.11746E-06   -0.37164E-08  4352   0.343E-04    0.301E-04
DAV:  10    -0.132955935670E+04   -0.14543E-06   -0.43990E-08  4704   0.329E-04    0.226E-04
DAV:  11    -0.132955935682E+04   -0.11813E-06   -0.10719E-08  3552   0.151E-04    0.129E-04
DAV:  12    -0.132955935696E+04   -0.14427E-06   -0.87210E-09  3360   0.111E-04    0.917E-05
DAV:  13    -0.132955935706E+04   -0.98516E-07   -0.56899E-09  3360   0.822E-05    0.831E-05
DAV:  14    -0.132955935713E+04   -0.65789E-07   -0.30312E-09  3104   0.724E-05    0.388E-05
DAV:  15    -0.132955935717E+04   -0.40440E-07   -0.21306E-09  3136   0.584E-05    0.370E-05
DAV:  16    -0.132955935720E+04   -0.29933E-07   -0.97356E-10  3104   0.403E-05    0.370E-05
DAV:  17    -0.132955935723E+04   -0.29322E-07   -0.63090E-10  3072   0.404E-05    0.185E-05
DAV:  18    -0.132955935724E+04   -0.12515E-07   -0.28392E-10  3104   0.379E-05    0.211E-05
DAV:  19    -0.132955935724E+04   -0.47439E-08    0.44581E-10  3104   0.230E-05
   6 F= -.13485278E+04 E0= -.13485278E+04  d E =0.834207E-03  mag=    -0.0000
       N       E                     dE             d eps       ncg     rms          rms(c)
DAV:   1    -0.132955984565E+04   -0.48841E-03   -0.11812E+00  5120   0.108E+00    0.143E-01
DAV:   2    -0.132956020867E+04   -0.36302E-03   -0.69147E-03  5600   0.865E-02    0.939E-02
DAV:   3    -0.132956011441E+04    0.94259E-04   -0.88538E-04  6272   0.396E-02    0.282E-02
DAV:   4    -0.132956012410E+04   -0.96870E-05   -0.14936E-04  6080   0.136E-02    0.182E-02
DAV:   5    -0.132956012043E+04    0.36629E-05   -0.17794E-05  6528   0.571E-03    0.812E-03
DAV:   6    -0.132956011887E+04    0.15638E-05   -0.42242E-06  6592   0.346E-03    0.308E-03
DAV:   7    -0.132956011854E+04    0.32764E-06   -0.13445E-06  6432   0.179E-03    0.136E-03
DAV:   8    -0.132956011862E+04   -0.77795E-07   -0.33963E-07  6816   0.102E-03    0.999E-04
DAV:   9    -0.132956011883E+04   -0.21358E-06   -0.14710E-07  5520   0.109E-03    0.464E-04
DAV:  10    -0.132956011919E+04   -0.35866E-06   -0.19519E-07  5808   0.978E-04    0.362E-04
DAV:  11    -0.132956011980E+04   -0.60568E-06   -0.14652E-07  5296   0.534E-04    0.315E-04
DAV:  12    -0.132956012019E+04   -0.39568E-06   -0.27343E-08  4000   0.251E-04    0.168E-04
DAV:  13    -0.132956012061E+04   -0.41825E-06   -0.20276E-08  3760   0.172E-04    0.101E-04
DAV:  14    -0.132956012092E+04   -0.30675E-06   -0.10871E-08  3424   0.102E-04    0.716E-05
DAV:  15    -0.132956012119E+04   -0.26717E-06   -0.10032E-08  3456   0.790E-05    0.583E-05
DAV:  16    -0.132956012134E+04   -0.15681E-06   -0.49083E-09  3200   0.721E-05    0.336E-05
DAV:  17    -0.132956012145E+04   -0.10667E-06   -0.48862E-09  3200   0.759E-05    0.334E-05
DAV:  18    -0.132956012148E+04   -0.32029E-07   -0.15837E-09  3136   0.542E-05    0.344E-05
DAV:  19    -0.132956012150E+04   -0.22759E-07   -0.29526E-10  3136   0.341E-05    0.153E-05
DAV:  20    -0.132956012153E+04   -0.22294E-07   -0.15288E-10  3136   0.337E-05    0.168E-05
DAV:  21    -0.132956012153E+04   -0.53842E-08    0.28785E-10  3136   0.216E-05
   7 F= -.13485290E+04 E0= -.13485290E+04  d E =-.123907E-02  mag=     0.0000
       N       E                     dE             d eps       ncg     rms          rms(c)
DAV:   1    -0.132956072565E+04   -0.60412E-03   -0.11621E+00  5120   0.113E+00    0.182E-01
DAV:   2    -0.132956154070E+04   -0.81505E-03   -0.11388E-02  5600   0.105E-01    0.128E-01
DAV:   3    -0.132956137456E+04    0.16614E-03   -0.12202E-03  6528   0.482E-02    0.586E-02
DAV:   4    -0.132956137004E+04    0.45137E-05   -0.26027E-04  6528   0.200E-02    0.203E-02
DAV:   5    -0.132956136579E+04    0.42510E-05   -0.29813E-05  6176   0.808E-03    0.105E-02
DAV:   6    -0.132956136334E+04    0.24506E-05   -0.51010E-06  5984   0.364E-03    0.437E-03
DAV:   7    -0.132956136281E+04    0.53325E-06   -0.32979E-06  6976   0.278E-03    0.201E-03
DAV:   8    -0.132956136292E+04   -0.10671E-06   -0.72651E-07  6464   0.129E-03    0.124E-03
DAV:   9    -0.132956136328E+04   -0.36036E-06   -0.24054E-07  6288   0.116E-03    0.813E-04
DAV:  10    -0.132956136415E+04   -0.87317E-06   -0.29332E-07  5712   0.117E-03    0.461E-04
DAV:  11    -0.132956136511E+04   -0.95909E-06   -0.21961E-07  5952   0.764E-04    0.325E-04
DAV:  12    -0.132956136582E+04   -0.70735E-06   -0.69308E-08  4992   0.354E-04    0.223E-04
DAV:  13    -0.132956136638E+04   -0.56729E-06   -0.16096E-08  3520   0.149E-04    0.136E-04
DAV:  14    -0.132956136696E+04   -0.58100E-06   -0.24907E-08  4032   0.114E-04    0.894E-05
DAV:  15    -0.132956136733E+04   -0.36265E-06   -0.94922E-09  3392   0.823E-05    0.536E-05
DAV:  16    -0.132956136757E+04   -0.24158E-06   -0.77872E-09  3360   0.653E-05    0.439E-05
DAV:  17    -0.132956136771E+04   -0.14303E-06   -0.42626E-09  3200   0.616E-05    0.258E-05
DAV:  18    -0.132956136776E+04   -0.51979E-07   -0.21338E-09  3136   0.493E-05    0.214E-05
DAV:  19    -0.132956136778E+04   -0.20271E-07   -0.77569E-10  3136   0.376E-05    0.165E-05
DAV:  20    -0.132956136780E+04   -0.11481E-07   -0.15770E-10  3136   0.266E-05    0.115E-05
DAV:  21    -0.132956136780E+04   -0.33033E-08    0.38946E-10  3104   0.198E-05
   8 F= -.13485298E+04 E0= -.13485298E+04  d E =-.789285E-03  mag=    -0.0000
       N       E                     dE             d eps       ncg     rms          rms(c)
DAV:   1    -0.132956008987E+04    0.12779E-02   -0.11666E+00  5120   0.107E+00    0.304E-01
DAV:   2    -0.132956067214E+04   -0.58227E-03   -0.10759E-02  5600   0.107E-01    0.253E-01
DAV:   3    -0.132956053255E+04    0.13959E-03   -0.26858E-03  5664   0.848E-02    0.439E-02
DAV:   4    -0.132956049822E+04    0.34325E-04   -0.71241E-04  5504   0.370E-02    0.263E-02
DAV:   5    -0.132956049580E+04    0.24203E-05   -0.12642E-04  6368   0.131E-02    0.161E-02
DAV:   6    -0.132956049385E+04    0.19530E-05   -0.15785E-05  6784   0.596E-03    0.714E-03
DAV:   7    -0.132956049352E+04    0.32829E-06   -0.36848E-06  6368   0.275E-03    0.293E-03
DAV:   8    -0.132956049459E+04   -0.10693E-05   -0.94551E-07  7008   0.153E-03    0.183E-03
DAV:   9    -0.132956049601E+04   -0.14236E-05   -0.39235E-07  5536   0.101E-03    0.105E-03
DAV:  10    -0.132956049866E+04   -0.26453E-05   -0.39492E-07  5792   0.115E-03    0.622E-04
DAV:  11    -0.132956050099E+04   -0.23316E-05   -0.33502E-07  5408   0.867E-04    0.377E-04
DAV:  12    -0.132956050261E+04   -0.16192E-05   -0.11270E-07  5328   0.347E-04    0.346E-04
DAV:  13    -0.132956050377E+04   -0.11587E-05   -0.38656E-08  4384   0.177E-04    0.169E-04
DAV:  14    -0.132956050463E+04   -0.85952E-06   -0.29381E-08  4064   0.135E-04    0.126E-04
DAV:  15    -0.132956050522E+04   -0.58967E-06   -0.17686E-08  3616   0.967E-05    0.614E-05
DAV:  16    -0.132956050554E+04   -0.32531E-06   -0.93536E-09  3328   0.909E-05    0.454E-05
DAV:  17    -0.132956050571E+04   -0.16793E-06   -0.65924E-09  3296   0.958E-05    0.394E-05
DAV:  18    -0.132956050581E+04   -0.96989E-07   -0.38473E-09  3136   0.779E-05    0.210E-05
DAV:  19    -0.132956050586E+04   -0.50044E-07   -0.17028E-09  3136   0.536E-05    0.196E-05
DAV:  20    -0.132956050587E+04   -0.12107E-07   -0.12398E-10  3136   0.321E-05    0.164E-05
DAV:  21    -0.132956050588E+04   -0.15149E-07    0.35381E-10  3104   0.247E-05    0.766E-06
DAV:  22    -0.132956050590E+04   -0.11220E-07    0.45020E-10  3104   0.180E-05    0.123E-05
DAV:  23    -0.132956050590E+04   -0.10186E-08    0.68736E-10  3008   0.113E-05
   9 F= -.13485294E+04 E0= -.13485294E+04  d E =0.389091E-03  mag=    -0.0000
       N       E                     dE             d eps       ncg     rms          rms(c)
DAV:   1    -0.132956029917E+04    0.20673E-03   -0.11485E+00  5120   0.107E+00    0.218E-01
DAV:   2    -0.132956128501E+04   -0.98584E-03   -0.12267E-02  5856   0.924E-02    0.159E-01
DAV:   3    -0.132956112583E+04    0.15917E-03   -0.12760E-03  6528   0.430E-02    0.809E-02
DAV:   4    -0.132956110521E+04    0.20623E-04   -0.31027E-04  5600   0.192E-02    0.288E-02
DAV:   5    -0.132956109731E+04    0.78983E-05   -0.11920E-04  5504   0.152E-02    0.118E-02
DAV:   6    -0.132956109829E+04   -0.97795E-06   -0.17800E-05  5568   0.529E-03    0.514E-03
DAV:   7    -0.132956110181E+04   -0.35200E-05   -0.40397E-06  6208   0.274E-03    0.253E-03
DAV:   8    -0.132956110453E+04   -0.27235E-05   -0.69197E-07  5984   0.104E-03    0.137E-03
DAV:   9    -0.132956110895E+04   -0.44208E-05   -0.52594E-07  5344   0.103E-03    0.104E-03
DAV:  10    -0.132956111338E+04   -0.44222E-05   -0.42560E-07  5152   0.689E-04    0.694E-04
DAV:  11    -0.132956111689E+04   -0.35171E-05   -0.43086E-07  5216   0.662E-04    0.533E-04
DAV:  12    -0.132956111900E+04   -0.21054E-05   -0.13534E-07  4800   0.400E-04    0.408E-04
DAV:  13    -0.132956112009E+04   -0.10916E-05   -0.60560E-08  4864   0.243E-04    0.236E-04
DAV:  14    -0.132956112111E+04   -0.10173E-05   -0.43199E-08  4352   0.170E-04    0.118E-04
DAV:  15    -0.132956112168E+04   -0.57365E-06   -0.17545E-08  3904   0.115E-04    0.839E-05
DAV:  16    -0.132956112210E+04   -0.42091E-06   -0.13387E-08  3904   0.829E-05    0.522E-05
DAV:  17    -0.132956112231E+04   -0.20789E-06   -0.53795E-09  3328   0.710E-05    0.366E-05
DAV:  18    -0.132956112241E+04   -0.10448E-06   -0.28405E-09  3136   0.685E-05    0.388E-05
DAV:  19    -0.132956112246E+04   -0.47949E-07   -0.13157E-09  3136   0.616E-05    0.275E-05
DAV:  20    -0.132956112249E+04   -0.26121E-07   -0.36014E-10  3136   0.452E-05    0.984E-06
DAV:  21    -0.132956112251E+04   -0.20256E-07    0.71902E-11  3136   0.313E-05    0.246E-05
DAV:  22    -0.132956112251E+04   -0.26048E-08    0.56547E-10  3136   0.176E-05
  10 F= -.13485300E+04 E0= -.13485300E+04  d E =-.582617E-03  mag=    -0.0000
       N       E                     dE             d eps       ncg     rms          rms(c)
DAV:   1    -0.132956102763E+04    0.94877E-04   -0.61124E-01  5120   0.791E-01    0.134E-01
DAV:   2    -0.132956143969E+04   -0.41206E-03   -0.63660E-03  5664   0.764E-02    0.942E-02
DAV:   3    -0.132956135575E+04    0.83947E-04   -0.66283E-04  6528   0.354E-02    0.517E-02
DAV:   4    -0.132956134998E+04    0.57672E-05   -0.18560E-04  5536   0.191E-02    0.172E-02
DAV:   5    -0.132956134477E+04    0.52039E-05   -0.73687E-05  5472   0.142E-02    0.833E-03
DAV:   6    -0.132956134431E+04    0.46570E-06   -0.99980E-06  5632   0.409E-03    0.415E-03
DAV:   7    -0.132956134458E+04   -0.27489E-06   -0.24086E-06  6688   0.232E-03    0.249E-03
DAV:   8    -0.132956134518E+04   -0.59554E-06   -0.39857E-07  6272   0.123E-03    0.139E-03
DAV:   9    -0.132956134623E+04   -0.10503E-05   -0.38192E-07  5936   0.141E-03    0.710E-04
DAV:  10    -0.132956134752E+04   -0.12922E-05   -0.30654E-07  5264   0.948E-04    0.775E-04
DAV:  11    -0.132956134891E+04   -0.13887E-05   -0.19651E-07  5344   0.706E-04    0.436E-04
DAV:  12    -0.132956134979E+04   -0.87499E-06   -0.96008E-08  5136   0.451E-04    0.270E-04
DAV:  13    -0.132956135042E+04   -0.63311E-06   -0.33755E-08  4384   0.260E-04    0.179E-04
DAV:  14    -0.132956135091E+04   -0.48646E-06   -0.11404E-08  3520   0.117E-04    0.120E-04
DAV:  15    -0.132956135147E+04   -0.56233E-06   -0.24726E-08  3968   0.116E-04    0.956E-05
DAV:  16    -0.132956135167E+04   -0.20670E-06   -0.39267E-09  3200   0.744E-05    0.557E-05
DAV:  17    -0.132956135182E+04   -0.15053E-06   -0.49571E-09  3296   0.611E-05    0.441E-05
DAV:  18    -0.132956135188E+04   -0.58702E-07   -0.10425E-09  3136   0.482E-05    0.237E-05
DAV:  19    -0.132956135193E+04   -0.50553E-07   -0.18427E-09  3136   0.516E-05    0.312E-05
DAV:  20    -0.132956135194E+04   -0.78144E-08   -0.93112E-11  3136   0.390E-05
  11 F= -.13485299E+04 E0= -.13485299E+04  d E =0.654480E-04  mag=     0.0000
       N       E                     dE             d eps       ncg     rms          rms(c)
DAV:   1    -0.132956047561E+04    0.87633E-03   -0.79111E-02  4992   0.145E-01    0.120E-01
DAV:   2    -0.132956031409E+04    0.16152E-03   -0.11771E-03  5312   0.213E-02    0.667E-02
DAV:   3    -0.132956029457E+04    0.19520E-04   -0.42157E-04  5568   0.119E-02    0.226E-02
DAV:   4    -0.132956028905E+04    0.55184E-05   -0.59051E-05  5856   0.524E-03    0.109E-02
DAV:   5    -0.132956029085E+04   -0.17936E-05   -0.61781E-06  5440   0.192E-03    0.323E-03
DAV:   6    -0.132956029109E+04   -0.24251E-06   -0.14740E-06  5600   0.886E-04    0.129E-03
DAV:   7    -0.132956029150E+04   -0.40773E-06   -0.23897E-07  4704   0.402E-04    0.505E-04
DAV:   8    -0.132956029184E+04   -0.34837E-06   -0.34635E-08  3872   0.151E-04    0.287E-04
DAV:   9    -0.132956029223E+04   -0.38111E-06   -0.15991E-08  3648   0.103E-04    0.148E-04
DAV:  10    -0.132956029263E+04   -0.40498E-06   -0.14572E-08  3392   0.939E-05    0.866E-05
DAV:  11    -0.132956029286E+04   -0.22577E-06   -0.61009E-09  3264   0.716E-05    0.631E-05
DAV:  12    -0.132956029313E+04   -0.27375E-06   -0.12696E-08  3488   0.950E-05    0.455E-05
DAV:  13    -0.132956029325E+04   -0.11605E-06   -0.51354E-09  3200   0.909E-05    0.322E-05
DAV:  14    -0.132956029331E+04   -0.63956E-07   -0.26453E-09  3136   0.636E-05    0.191E-05
DAV:  15    -0.132956029336E+04   -0.46057E-07   -0.16193E-09  3072   0.487E-05    0.187E-05
DAV:  16    -0.132956029337E+04   -0.13839E-07   -0.38582E-10  3136   0.364E-05    0.104E-05
DAV:  17    -0.132956029338E+04   -0.77271E-08    0.56822E-11  3136   0.274E-05
  12 F= -.13485288E+04 E0= -.13485288E+04  d E =0.112135E-02  mag=    -0.0000
       N       E                     dE             d eps       ncg     rms          rms(c)
DAV:   1    -0.132956146742E+04   -0.11741E-02   -0.83764E-02  5120   0.146E-01    0.143E-01
DAV:   2    -0.132956119998E+04    0.26744E-03   -0.19108E-03  5760   0.272E-02    0.762E-02
DAV:   3    -0.132956116237E+04    0.37611E-04   -0.46220E-04  5600   0.124E-02    0.283E-02
DAV:   4    -0.132956115632E+04    0.60470E-05   -0.66136E-05  5920   0.560E-03    0.119E-02
DAV:   5    -0.132956115720E+04   -0.88412E-06   -0.83609E-06  5728   0.210E-03    0.313E-03
DAV:   6    -0.132956115729E+04   -0.89902E-07   -0.14218E-06  5312   0.930E-04    0.168E-03
DAV:   7    -0.132956115743E+04   -0.14190E-06   -0.30322E-07  5536   0.457E-04    0.663E-04
DAV:   8    -0.132956115758E+04   -0.14507E-06   -0.45608E-08  4096   0.188E-04    0.259E-04
DAV:   9    -0.132956115767E+04   -0.86191E-07   -0.69174E-09  3296   0.901E-05    0.147E-04
DAV:  10    -0.132956115778E+04   -0.11511E-06   -0.71258E-09  3328   0.774E-05    0.791E-05
DAV:  11    -0.132956115785E+04   -0.67899E-07   -0.21229E-09  3200   0.541E-05    0.511E-05
DAV:  12    -0.132956115792E+04   -0.74942E-07   -0.32666E-09  3104   0.604E-05    0.369E-05
DAV:  13    -0.132956115795E+04   -0.29962E-07   -0.87051E-10  3136   0.464E-05    0.311E-05
DAV:  14    -0.132956115798E+04   -0.28667E-07   -0.60643E-10  3072   0.393E-05    0.147E-05
DAV:  15    -0.132956115800E+04   -0.22104E-07   -0.42270E-10  3072   0.336E-05    0.165E-05
DAV:  16    -0.132956115801E+04   -0.10172E-07    0.24776E-10  3136   0.243E-05    0.107E-05
DAV:  17    -0.132956115802E+04   -0.92696E-08    0.28936E-10  3072   0.236E-05
  13 F= -.13485296E+04 E0= -.13485296E+04  d E =-.821978E-03  mag=     0.0000
       N       E                     dE             d eps       ncg     rms          rms(c)
DAV:   1    -0.132956144559E+04   -0.28758E-03   -0.71712E-02  4992   0.169E-01    0.838E-02
DAV:   2    -0.132956145642E+04   -0.10826E-04   -0.66311E-04  5392   0.155E-02    0.504E-02
DAV:   3    -0.132956146124E+04   -0.48281E-05   -0.15651E-04  5824   0.756E-03    0.135E-02
DAV:   4    -0.132956145779E+04    0.34507E-05   -0.26513E-05  5792   0.305E-03    0.671E-03
DAV:   5    -0.132956145849E+04   -0.69273E-06   -0.37477E-06  5376   0.124E-03    0.223E-03
DAV:   6    -0.132956145916E+04   -0.66897E-06   -0.42261E-07  5376   0.509E-04    0.953E-04
DAV:   7    -0.132956145997E+04   -0.81814E-06   -0.14520E-07  4576   0.258E-04    0.410E-04
DAV:   8    -0.132956146068E+04   -0.71179E-06   -0.24400E-08  3712   0.121E-04    0.237E-04
DAV:   9    -0.132956146159E+04   -0.90097E-06   -0.42854E-08  4128   0.135E-04    0.136E-04
DAV:  10    -0.132956146215E+04   -0.56029E-06   -0.16585E-08  3520   0.834E-05    0.922E-05
DAV:  11    -0.132956146259E+04   -0.43947E-06   -0.14271E-08  3744   0.738E-05    0.665E-05
DAV:  12    -0.132956146281E+04   -0.22398E-06   -0.39607E-09  3264   0.532E-05    0.424E-05
DAV:  13    -0.132956146303E+04   -0.22489E-06   -0.75647E-09  3520   0.550E-05    0.318E-05
DAV:  14    -0.132956146311E+04   -0.79424E-07   -0.10324E-09  3136   0.391E-05    0.225E-05
DAV:  15    -0.132956146321E+04   -0.94064E-07   -0.17152E-09  3136   0.408E-05    0.221E-05
DAV:  16    -0.132956146323E+04   -0.26761E-07   -0.12896E-10  3136   0.302E-05    0.164E-05
DAV:  17    -0.132956146325E+04   -0.17346E-07    0.24730E-10  3136   0.228E-05    0.100E-05
DAV:  18    -0.132956146326E+04   -0.95897E-08    0.36687E-10  3136   0.184E-05
  14 F= -.13485301E+04 E0= -.13485301E+04  d E =-.429448E-03  mag=    -0.0000
       N       E                     dE             d eps       ncg     rms          rms(c)
DAV:   1    -0.132956091296E+04    0.55029E-03   -0.72835E-02  4576   0.168E-01    0.872E-02
DAV:   2    -0.132956089385E+04    0.19108E-04   -0.52653E-04  4768   0.144E-02    0.513E-02
DAV:   3    -0.132956089428E+04   -0.42908E-06   -0.19450E-04  5312   0.772E-03    0.131E-02
DAV:   4    -0.132956089104E+04    0.32354E-05   -0.17789E-05  4768   0.257E-03    0.792E-03
DAV:   5    -0.132956089109E+04   -0.50888E-07   -0.96133E-06  5024   0.177E-03    0.147E-03
DAV:   6    -0.132956089164E+04   -0.54450E-06   -0.54432E-07  4688   0.510E-04    0.933E-04
DAV:   7    -0.132956089242E+04   -0.78454E-06   -0.10200E-07  4288   0.226E-04    0.486E-04
DAV:   8    -0.132956089321E+04   -0.78276E-06   -0.39398E-08  3712   0.126E-04    0.230E-04
DAV:   9    -0.132956089389E+04   -0.68429E-06   -0.25373E-08  3808   0.946E-05    0.142E-04
DAV:  10    -0.132956089468E+04   -0.78916E-06   -0.36199E-08  3968   0.110E-04    0.989E-05
DAV:  11    -0.132956089507E+04   -0.38909E-06   -0.14328E-08  3504   0.107E-04    0.571E-05
DAV:  12    -0.132956089531E+04   -0.24335E-06   -0.91302E-09  3328   0.102E-04    0.512E-05
DAV:  13    -0.132956089545E+04   -0.14223E-06   -0.53574E-09  3328   0.783E-05    0.371E-05
DAV:  14    -0.132956089556E+04   -0.10939E-06   -0.40646E-09  3168   0.651E-05    0.174E-05
DAV:  15    -0.132956089559E+04   -0.26630E-07   -0.11930E-09  3136   0.511E-05    0.199E-05
DAV:  16    -0.132956089561E+04   -0.15265E-07    0.58138E-11  3136   0.271E-05    0.129E-05
DAV:  17    -0.132956089563E+04   -0.19820E-07    0.16237E-10  3136   0.234E-05    0.108E-05
DAV:  18    -0.132956089563E+04   -0.51659E-08    0.62997E-10  3136   0.149E-05
  15 F= -.13485294E+04 E0= -.13485294E+04  d E =0.618641E-03  mag=     0.0000
       N       E                     dE             d eps       ncg     rms          rms(c)
DAV:   1    -0.132956103455E+04   -0.13893E-03   -0.70830E-02  4544   0.167E-01    0.762E-02
DAV:   2    -0.132956104591E+04   -0.11355E-04   -0.40389E-04  5264   0.124E-02    0.463E-02
DAV:   3    -0.132956104707E+04   -0.11609E-05   -0.94966E-05  5392   0.644E-03    0.722E-03
DAV:   4    -0.132956104669E+04    0.37668E-06   -0.10533E-05  5088   0.200E-03    0.512E-03
DAV:   5    -0.132956104703E+04   -0.34168E-06   -0.54153E-06  4928   0.143E-03    0.140E-03
DAV:   6    -0.132956104753E+04   -0.50111E-06   -0.46575E-07  4864   0.500E-04    0.830E-04
DAV:   7    -0.132956104828E+04   -0.74742E-06   -0.80195E-08  4144   0.212E-04    0.421E-04
DAV:   8    -0.132956104912E+04   -0.84468E-06   -0.44851E-08  4192   0.141E-04    0.216E-04
DAV:   9    -0.132956104997E+04   -0.84160E-06   -0.33182E-08  4064   0.129E-04    0.140E-04
DAV:  10    -0.132956105060E+04   -0.63475E-06   -0.23426E-08  4192   0.107E-04    0.101E-04
DAV:  11    -0.132956105105E+04   -0.44832E-06   -0.15558E-08  3936   0.945E-05    0.604E-05
DAV:  12    -0.132956105129E+04   -0.23663E-06   -0.61467E-09  3392   0.891E-05    0.431E-05
DAV:  13    -0.132956105146E+04   -0.17781E-06   -0.73052E-09  3520   0.845E-05    0.346E-05
DAV:  14    -0.132956105153E+04   -0.64552E-07   -0.19979E-09  3136   0.615E-05    0.217E-05
DAV:  15    -0.132956105157E+04   -0.37238E-07   -0.97800E-10  3136   0.439E-05    0.127E-05
DAV:  16    -0.132956105158E+04   -0.17812E-07   -0.83068E-11  3136   0.340E-05    0.151E-05
DAV:  17    -0.132956105159E+04   -0.65047E-08    0.38853E-10  3136   0.202E-05
  16 F= -.13485295E+04 E0= -.13485295E+04  d E =-.913794E-04  mag=    -0.0000
       N       E                     dE             d eps       ncg     rms          rms(c)
DAV:   1    -0.132956141590E+04   -0.36432E-03   -0.72096E-02  5184   0.177E-01    0.110E-01
DAV:   2    -0.132956136463E+04    0.51268E-04   -0.12085E-03  5792   0.295E-02    0.630E-02
DAV:   3    -0.132956135753E+04    0.71076E-05   -0.48651E-04  5568   0.167E-02    0.244E-02
DAV:   4    -0.132956134924E+04    0.82915E-05   -0.66014E-05  6144   0.753E-03    0.125E-02
DAV:   5    -0.132956135053E+04   -0.12975E-05   -0.97845E-06  5568   0.245E-03    0.316E-03
DAV:   6    -0.132956135069E+04   -0.16188E-06   -0.12210E-06  5856   0.103E-03    0.138E-03
DAV:   7    -0.132956135105E+04   -0.35448E-06   -0.31747E-07  5024   0.584E-04    0.746E-04
DAV:   8    -0.132956135126E+04   -0.21346E-06   -0.59015E-08  4896   0.282E-04    0.364E-04
DAV:   9    -0.132956135155E+04   -0.29142E-06   -0.21386E-08  3808   0.191E-04    0.162E-04
DAV:  10    -0.132956135174E+04   -0.18386E-06   -0.11144E-08  3616   0.126E-04    0.113E-04
DAV:  11    -0.132956135198E+04   -0.23810E-06   -0.13185E-08  3552   0.132E-04    0.726E-05
DAV:  12    -0.132956135207E+04   -0.97032E-07   -0.48121E-09  3264   0.790E-05    0.572E-05
DAV:  13    -0.132956135217E+04   -0.96508E-07   -0.52878E-09  3264   0.839E-05    0.421E-05
DAV:  14    -0.132956135221E+04   -0.44049E-07   -0.29501E-09  3136   0.713E-05    0.373E-05
DAV:  15    -0.132956135223E+04   -0.17288E-07   -0.10940E-09  3136   0.539E-05    0.209E-05
DAV:  16    -0.132956135226E+04   -0.28260E-07   -0.11638E-09  3072   0.491E-05    0.242E-05
DAV:  17    -0.132956135227E+04   -0.63592E-08    0.13969E-10  3136   0.286E-05
  17 F= -.13485300E+04 E0= -.13485300E+04  d E =-.418720E-03  mag=     0.0000
       N       E                     dE             d eps       ncg     rms          rms(c)
DAV:   1    -0.132956057891E+04    0.77335E-03   -0.61055E-02  5184   0.129E-01    0.741E-02
DAV:   2    -0.132956063397E+04   -0.55056E-04   -0.41466E-04  5600   0.163E-02    0.436E-02
DAV:   3    -0.132956066470E+04   -0.30725E-04   -0.51470E-05  6048   0.736E-03    0.108E-02
DAV:   4    -0.132956066544E+04   -0.74471E-06   -0.14283E-05  6496   0.443E-03    0.355E-03
DAV:   5    -0.132956066545E+04   -0.68831E-08   -0.10991E-06  6272   0.121E-03    0.184E-03
DAV:   6    -0.132956066556E+04   -0.11045E-06   -0.68201E-07  5168   0.936E-04    0.109E-03
DAV:   7    -0.132956066564E+04   -0.79337E-07   -0.15345E-07  5696   0.526E-04    0.357E-04
DAV:   8    -0.132956066578E+04   -0.14251E-06   -0.26401E-08  3968   0.199E-04    0.209E-04
DAV:   9    -0.132956066594E+04   -0.16401E-06   -0.11814E-08  3680   0.138E-04    0.130E-04
DAV:  10    -0.132956066611E+04   -0.16949E-06   -0.11409E-08  3520   0.127E-04    0.779E-05
DAV:  11    -0.132956066622E+04   -0.10880E-06   -0.52770E-09  3264   0.870E-05    0.613E-05
DAV:  12    -0.132956066633E+04   -0.10588E-06   -0.62188E-09  3296   0.840E-05    0.367E-05
DAV:  13    -0.132956066638E+04   -0.55225E-07   -0.36597E-09  3136   0.780E-05    0.329E-05
DAV:  14    -0.132956066641E+04   -0.29817E-07   -0.17275E-09  3136   0.601E-05    0.262E-05
DAV:  15    -0.132956066645E+04   -0.33047E-07   -0.17743E-09  3136   0.460E-05    0.231E-05
DAV:  16    -0.132956066646E+04   -0.12384E-07   -0.12552E-10  3136   0.311E-05    0.157E-05
DAV:  17    -0.132956066647E+04   -0.74506E-08    0.33031E-10  3136   0.257E-05
  18 F= -.13485293E+04 E0= -.13485293E+04  d E =0.610434E-03  mag=     0.0000
       N       E                     dE             d eps       ncg     rms          rms(c)
DAV:   1    -0.132956118908E+04   -0.52262E-03   -0.60897E-02  5152   0.129E-01    0.703E-02
DAV:   2    -0.132956124603E+04   -0.56951E-04   -0.39818E-04  5792   0.171E-02    0.423E-02
DAV:   3    -0.132956127570E+04   -0.29677E-04   -0.41676E-05  6016   0.791E-03    0.984E-03
DAV:   4    -0.132956127666E+04   -0.96018E-06   -0.71958E-06  6528   0.375E-03    0.295E-03
DAV:   5    -0.132956127677E+04   -0.10709E-06   -0.89045E-07  6016   0.125E-03    0.161E-03
DAV:   6    -0.132956127677E+04   -0.62573E-09   -0.23716E-07  6208   0.773E-04    0.838E-04
DAV:   7    -0.132956127686E+04   -0.84474E-07   -0.73031E-08  4992   0.510E-04    0.435E-04
DAV:   8    -0.132956127697E+04   -0.11461E-06   -0.51282E-08  4800   0.393E-04    0.250E-04
DAV:   9    -0.132956127713E+04   -0.15809E-06   -0.18301E-08  3808   0.262E-04    0.154E-04
DAV:  10    -0.132956127730E+04   -0.17091E-06   -0.16488E-08  3712   0.230E-04    0.106E-04
DAV:  11    -0.132956127742E+04   -0.12162E-06   -0.10429E-08  3520   0.140E-04    0.773E-05
DAV:  12    -0.132956127751E+04   -0.89538E-07   -0.49574E-09  3136   0.968E-05    0.434E-05
DAV:  13    -0.132956127759E+04   -0.79395E-07   -0.55793E-09  3232   0.778E-05    0.457E-05
DAV:  14    -0.132956127762E+04   -0.30661E-07   -0.19686E-09  3136   0.629E-05    0.275E-05
DAV:  15    -0.132956127765E+04   -0.30064E-07   -0.16848E-09  3136   0.615E-05    0.260E-05
DAV:  16    -0.132956127766E+04   -0.13402E-07   -0.50624E-10  3136   0.472E-05    0.258E-05
DAV:  17    -0.132956127767E+04   -0.76252E-08    0.52611E-11  3136   0.349E-05
  19 F= -.13485297E+04 E0= -.13485297E+04  d E =-.313676E-03  mag=    -0.0000
       N       E                     dE             d eps       ncg     rms          rms(c)
DAV:   1    -0.132956035843E+04    0.91923E-03   -0.74231E-02  5184   0.178E-01    0.120E-01
DAV:   2    -0.132956026625E+04    0.92187E-04   -0.13881E-03  5600   0.334E-02    0.666E-02
DAV:   3    -0.132956025242E+04    0.13825E-04   -0.52107E-04  5696   0.181E-02    0.266E-02
DAV:   4    -0.132956024370E+04    0.87214E-05   -0.75736E-05  6144   0.853E-03    0.129E-02
DAV:   5    -0.132956024500E+04   -0.13039E-05   -0.91413E-06  5632   0.289E-03    0.306E-03
DAV:   6    -0.132956024499E+04    0.14712E-07   -0.12304E-06  5584   0.999E-04    0.166E-03
DAV:   7    -0.132956024511E+04   -0.11940E-06   -0.49281E-07  4864   0.768E-04    0.893E-04
DAV:   8    -0.132956024524E+04   -0.12969E-06   -0.67518E-08  5056   0.370E-04    0.479E-04
DAV:   9    -0.132956024542E+04   -0.18510E-06   -0.49357E-08  4704   0.358E-04    0.235E-04
DAV:  10    -0.132956024558E+04   -0.15346E-06   -0.16822E-08  3648   0.216E-04    0.156E-04
DAV:  11    -0.132956024578E+04   -0.20293E-06   -0.18707E-08  3680   0.232E-04    0.115E-04
DAV:  12    -0.132956024590E+04   -0.12331E-06   -0.11252E-08  3488   0.134E-04    0.950E-05
DAV:  13    -0.132956024601E+04   -0.11042E-06   -0.71688E-09  3264   0.115E-04    0.433E-05
DAV:  14    -0.132956024608E+04   -0.69500E-07   -0.53207E-09  3200   0.961E-05    0.544E-05
DAV:  15    -0.132956024613E+04   -0.42783E-07   -0.31130E-09  3136   0.842E-05    0.375E-05
DAV:  16    -0.132956024616E+04   -0.37020E-07   -0.25284E-09  3136   0.754E-05    0.213E-05
DAV:  17    -0.132956024618E+04   -0.18437E-07   -0.58642E-10  3136   0.431E-05    0.255E-05
DAV:  18    -0.132956024620E+04   -0.18365E-07   -0.49543E-11  3136   0.344E-05    0.139E-05
DAV:  19    -0.132956024621E+04   -0.94151E-08    0.21137E-10  3136   0.252E-05
  20 F= -.13485289E+04 E0= -.13485289E+04  d E =0.789037E-03  mag=     0.0000
       N       E                     dE             d eps       ncg     rms          rms(c)
DAV:   1    -0.132956168672E+04   -0.14405E-02   -0.79419E-02  5056   0.174E-01    0.121E-01
DAV:   2    -0.132956154764E+04    0.13908E-03   -0.10601E-03  5216   0.224E-02    0.676E-02
DAV:   3    -0.132956152096E+04    0.26680E-04   -0.56821E-04  5344   0.135E-02    0.227E-02
DAV:   4    -0.132956151126E+04    0.96950E-05   -0.52335E-05  5056   0.435E-03    0.142E-02
DAV:   5    -0.132956151052E+04    0.73886E-06   -0.18571E-05  5728   0.259E-03    0.253E-03
DAV:   6    -0.132956151057E+04   -0.45431E-07   -0.13734E-06  5152   0.832E-04    0.996E-04
DAV:   7    -0.132956151074E+04   -0.16743E-06   -0.21319E-07  4768   0.288E-04    0.792E-04
DAV:   8    -0.132956151085E+04   -0.10821E-06   -0.25252E-08  3552   0.145E-04    0.281E-04
DAV:   9    -0.132956151095E+04   -0.10495E-06   -0.14054E-08  3616   0.106E-04    0.127E-04
DAV:  10    -0.132956151102E+04   -0.69966E-07   -0.25642E-09  3232   0.661E-05    0.653E-05
DAV:  11    -0.132956151108E+04   -0.61031E-07   -0.15330E-09  3136   0.592E-05    0.367E-05
DAV:  12    -0.132956151113E+04   -0.53158E-07   -0.20703E-09  3200   0.709E-05    0.271E-05
DAV:  13    -0.132956151116E+04   -0.24389E-07   -0.10155E-09  3136   0.600E-05    0.252E-05
DAV:  14    -0.132956151118E+04   -0.24578E-07   -0.61795E-10  3072   0.417E-05    0.164E-05
DAV:  15    -0.132956151120E+04   -0.15236E-07   -0.44479E-10  3072   0.341E-05    0.158E-05
DAV:  16    -0.132956151120E+04   -0.29977E-08    0.29558E-10  3136   0.233E-05
  21 F= -.13485300E+04 E0= -.13485300E+04  d E =-.114294E-02  mag=    -0.0000
       N       E                     dE             d eps       ncg     rms          rms(c)
DAV:   1    -0.132956180912E+04   -0.29792E-03   -0.74343E-02  5056   0.172E-01    0.928E-02
DAV:   2    -0.132956177701E+04    0.32111E-04   -0.60838E-04  5152   0.155E-02    0.543E-02
DAV:   3    -0.132956177250E+04    0.45147E-05   -0.24161E-04  5760   0.867E-03    0.143E-02
DAV:   4    -0.132956176844E+04    0.40568E-05   -0.22883E-05  5248   0.287E-03    0.841E-03
DAV:   5    -0.132956176830E+04    0.14214E-06   -0.10420E-05  5216   0.190E-03    0.158E-03
DAV:   6    -0.132956176843E+04   -0.13792E-06   -0.58597E-07  4640   0.556E-04    0.881E-04
DAV:   7    -0.132956176861E+04   -0.17975E-06   -0.94558E-08  4160   0.236E-04    0.354E-04
DAV:   8    -0.132956176879E+04   -0.17961E-06   -0.21632E-08  3648   0.127E-04    0.200E-04
DAV:   9    -0.132956176900E+04   -0.20230E-06   -0.84797E-09  3424   0.846E-05    0.106E-04
DAV:  10    -0.132956176923E+04   -0.23586E-06   -0.12139E-08  3552   0.960E-05    0.674E-05
DAV:  11    -0.132956176938E+04   -0.14468E-06   -0.67989E-09  3392   0.863E-05    0.470E-05
DAV:  12    -0.132956176947E+04   -0.90804E-07   -0.49455E-09  3296   0.899E-05    0.302E-05
DAV:  13    -0.132956176953E+04   -0.60856E-07   -0.35883E-09  3200   0.727E-05    0.264E-05
DAV:  14    -0.132956176955E+04   -0.25539E-07   -0.11351E-09  3136   0.447E-05    0.175E-05
DAV:  15    -0.132956176957E+04   -0.19631E-07   -0.58873E-10  3136   0.366E-05    0.105E-05
DAV:  16    -0.132956176958E+04   -0.58790E-08    0.27487E-10  3136   0.239E-05
  22 F= -.13485300E+04 E0= -.13485300E+04  d E =-.109887E-04  mag=    -0.0000
       N       E                     dE             d eps       ncg     rms          rms(c)
DAV:   1    -0.132956082090E+04    0.94868E-03   -0.78083E-02  5024   0.169E-01    0.112E-01
DAV:   2    -0.132956071304E+04    0.10786E-03   -0.95131E-04  5248   0.204E-02    0.638E-02
DAV:   3    -0.132956069373E+04    0.19309E-04   -0.66218E-04  5504   0.143E-02    0.257E-02
DAV:   4    -0.132956068141E+04    0.12318E-04   -0.58360E-05  5024   0.444E-03    0.169E-02
DAV:   5    -0.132956067960E+04    0.18108E-05   -0.20775E-05  5376   0.269E-03    0.404E-03
DAV:   6    -0.132956067949E+04    0.11071E-06   -0.34021E-06  5088   0.111E-03    0.117E-03
DAV:   7    -0.132956067974E+04   -0.25013E-06   -0.40587E-07  4864   0.413E-04    0.121E-03
DAV:   8    -0.132956067993E+04   -0.19351E-06   -0.29429E-08  3520   0.154E-04    0.566E-04
DAV:   9    -0.132956068018E+04   -0.25138E-06   -0.55794E-08  4000   0.187E-04    0.247E-04
DAV:  10    -0.132956068030E+04   -0.11208E-06   -0.55682E-09  3328   0.862E-05    0.119E-04
DAV:  11    -0.132956068046E+04   -0.15984E-06   -0.58666E-09  3392   0.773E-05    0.533E-05
DAV:  12    -0.132956068056E+04   -0.10498E-06   -0.34861E-09  3264   0.683E-05    0.715E-05
DAV:  13    -0.132956068064E+04   -0.79774E-07   -0.30786E-09  3168   0.659E-05    0.343E-05
DAV:  14    -0.132956068068E+04   -0.34823E-07   -0.16757E-09  3136   0.587E-05    0.241E-05
DAV:  15    -0.132956068071E+04   -0.39319E-07   -0.14035E-09  3136   0.481E-05    0.134E-05
DAV:  16    -0.132956068073E+04   -0.18263E-07   -0.31210E-10  3136   0.317E-05    0.150E-05
DAV:  17    -0.132956068074E+04   -0.62864E-08    0.36428E-10  3136   0.197E-05
  23 F= -.13485292E+04 E0= -.13485292E+04  d E =0.841536E-03  mag=     0.0000
       N       E                     dE             d eps       ncg     rms          rms(c)
DAV:   1    -0.132956150034E+04   -0.81961E-03   -0.73436E-02  4928   0.148E-01    0.842E-02
DAV:   2    -0.132956149671E+04    0.36358E-05   -0.50450E-04  5312   0.128E-02    0.502E-02
DAV:   3    -0.132956148900E+04    0.77086E-05   -0.15936E-04  5600   0.733E-03    0.111E-02
DAV:   4    -0.132956148646E+04    0.25430E-05   -0.17596E-05  4960   0.239E-03    0.707E-03
DAV:   5    -0.132956148585E+04    0.60904E-06   -0.89821E-06  4896   0.165E-03    0.157E-03
DAV:   6    -0.132956148598E+04   -0.12929E-06   -0.63973E-07  4576   0.534E-04    0.869E-04
DAV:   7    -0.132956148614E+04   -0.15768E-06   -0.69421E-08  4160   0.216E-04    0.419E-04
DAV:   8    -0.132956148637E+04   -0.23551E-06   -0.25739E-08  3616   0.151E-04    0.193E-04
DAV:   9    -0.132956148659E+04   -0.21458E-06   -0.12165E-08  3520   0.118E-04    0.116E-04
DAV:  10    -0.132956148681E+04   -0.22502E-06   -0.90675E-09  3488   0.985E-05    0.712E-05
DAV:  11    -0.132956148696E+04   -0.14769E-06   -0.62487E-09  3328   0.802E-05    0.505E-05
DAV:  12    -0.132956148707E+04   -0.10841E-06   -0.54056E-09  3328   0.842E-05    0.334E-05
DAV:  13    -0.132956148713E+04   -0.63126E-07   -0.35719E-09  3200   0.724E-05    0.299E-05
DAV:  14    -0.132956148716E+04   -0.34401E-07   -0.13719E-09  3136   0.450E-05    0.188E-05
DAV:  15    -0.132956148720E+04   -0.33848E-07   -0.87028E-10  3136   0.380E-05    0.147E-05
DAV:  16    -0.132956148721E+04   -0.12631E-07    0.34170E-11  3136   0.257E-05    0.127E-05
DAV:  17    -0.132956148722E+04   -0.78871E-08    0.43470E-10  3136   0.172E-05
  24 F= -.13485300E+04 E0= -.13485300E+04  d E =-.832601E-03  mag=     0.0000
       N       E                     dE             d eps       ncg     rms          rms(c)
DAV:   1    -0.132956169146E+04   -0.20425E-03   -0.78635E-02  5056   0.152E-01    0.116E-01
DAV:   2    -0.132956157377E+04    0.11770E-03   -0.93663E-04  5312   0.181E-02    0.655E-02
DAV:   3    -0.132956154708E+04    0.26690E-04   -0.50705E-04  5536   0.123E-02    0.209E-02
DAV:   4    -0.132956153796E+04    0.91162E-05   -0.51583E-05  5088   0.410E-03    0.125E-02
DAV:   5    -0.132956153745E+04    0.51122E-06   -0.17653E-05  5440   0.245E-03    0.217E-03
DAV:   6    -0.132956153749E+04   -0.40673E-07   -0.10122E-06  4832   0.692E-04    0.111E-03
DAV:   7    -0.132956153755E+04   -0.59765E-07   -0.17181E-07  4576   0.254E-04    0.720E-04
DAV:   8    -0.132956153765E+04   -0.10068E-06   -0.23262E-08  3552   0.130E-04    0.252E-04
DAV:   9    -0.132956153775E+04   -0.96188E-07   -0.12705E-08  3552   0.966E-05    0.124E-04
DAV:  10    -0.132956153789E+04   -0.13824E-06   -0.63523E-09  3296   0.833E-05    0.746E-05
DAV:  11    -0.132956153797E+04   -0.88010E-07   -0.35333E-09  3264   0.750E-05    0.470E-05
DAV:  12    -0.132956153806E+04   -0.88796E-07   -0.49603E-09  3328   0.906E-05    0.353E-05
DAV:  13    -0.132956153811E+04   -0.47396E-07   -0.28839E-09  3136   0.882E-05    0.324E-05
DAV:  14    -0.132956153815E+04   -0.42593E-07   -0.16462E-09  3136   0.547E-05    0.163E-05
DAV:  15    -0.132956153819E+04   -0.37180E-07   -0.11477E-09  3136   0.410E-05    0.162E-05
DAV:  16    -0.132956153819E+04   -0.52678E-08    0.66478E-11  3136   0.264E-05
  25 F= -.13485298E+04 E0= -.13485298E+04  d E =0.197457E-03  mag=     0.0000
       N       E                     dE             d eps       ncg     rms          rms(c)
DAV:   1    -0.132956105831E+04    0.47988E-03   -0.77727E-02  5056   0.160E-01    0.109E-01
DAV:   2    -0.132956099800E+04    0.60305E-04   -0.11940E-03  5248   0.210E-02    0.669E-02
DAV:   3    -0.132956097762E+04    0.20386E-04   -0.55345E-04  5440   0.137E-02    0.238E-02
DAV:   4    -0.132956096512E+04    0.12496E-04   -0.75065E-05  5344   0.509E-03    0.126E-02
DAV:   5    -0.132956096494E+04    0.18228E-06   -0.16308E-05  5888   0.253E-03    0.249E-03
DAV:   6    -0.132956096523E+04   -0.29619E-06   -0.11168E-06  5184   0.730E-04    0.114E-03
DAV:   7    -0.132956096566E+04   -0.42259E-06   -0.23199E-07  4896   0.291E-04    0.664E-04
DAV:   8    -0.132956096618E+04   -0.52854E-06   -0.37253E-08  3872   0.148E-04    0.255E-04
DAV:   9    -0.132956096662E+04   -0.43842E-06   -0.22251E-08  3840   0.107E-04    0.166E-04
DAV:  10    -0.132956096714E+04   -0.51213E-06   -0.22191E-08  3744   0.104E-04    0.101E-04
DAV:  11    -0.132956096742E+04   -0.28385E-06   -0.10576E-08  3504   0.107E-04    0.619E-05
DAV:  12    -0.132956096761E+04   -0.18784E-06   -0.83833E-09  3408   0.112E-04    0.443E-05
DAV:  13    -0.132956096769E+04   -0.83426E-07   -0.36040E-09  3168   0.949E-05    0.322E-05
DAV:  14    -0.132956096781E+04   -0.12071E-06   -0.52812E-09  3232   0.751E-05    0.303E-05
DAV:  15    -0.132956096784E+04   -0.26121E-07   -0.99197E-10  3136   0.522E-05    0.246E-05
DAV:  16    -0.132956096785E+04   -0.13184E-07   -0.33023E-11  3136   0.327E-05    0.158E-05
DAV:  17    -0.132956096787E+04   -0.21231E-07    0.16373E-10  3104   0.275E-05    0.176E-05
DAV:  18    -0.132956096788E+04   -0.51368E-08    0.45997E-10  3104   0.183E-05
  26 F= -.13485295E+04 E0= -.13485295E+04  d E =0.297785E-03  mag=    -0.0000
       N       E                     dE             d eps       ncg     rms          rms(c)
DAV:   1    -0.132956107880E+04   -0.11092E-03   -0.73699E-02  4992   0.143E-01    0.869E-02
DAV:   2    -0.132956106768E+04    0.11121E-04   -0.44571E-04  4896   0.118E-02    0.516E-02
DAV:   3    -0.132956106821E+04   -0.53029E-06   -0.13540E-04  5312   0.692E-03    0.915E-03
DAV:   4    -0.132956106681E+04    0.14003E-05   -0.15065E-05  4960   0.260E-03    0.544E-03
DAV:   5    -0.132956106728E+04   -0.47842E-06   -0.55981E-06  5024   0.154E-03    0.154E-03
DAV:   6    -0.132956106784E+04   -0.55181E-06   -0.51655E-07  4768   0.518E-04    0.827E-04
DAV:   7    -0.132956106870E+04   -0.86578E-06   -0.10432E-07  4176   0.240E-04    0.305E-04
DAV:   8    -0.132956106929E+04   -0.59241E-06   -0.30430E-08  3760   0.131E-04    0.217E-04
DAV:   9    -0.132956106999E+04   -0.69279E-06   -0.22797E-08  3616   0.982E-05    0.114E-04
DAV:  10    -0.132956107055E+04   -0.56633E-06   -0.22334E-08  3792   0.112E-04    0.763E-05
DAV:  11    -0.132956107093E+04   -0.38004E-06   -0.14988E-08  3616   0.127E-04    0.651E-05
DAV:  12    -0.132956107115E+04   -0.21652E-06   -0.82261E-09  3424   0.110E-04    0.387E-05
DAV:  13    -0.132956107131E+04   -0.15978E-06   -0.51623E-09  3200   0.732E-05    0.326E-05
DAV:  14    -0.132956107136E+04   -0.55370E-07   -0.17226E-09  3136   0.587E-05    0.243E-05
DAV:  15    -0.132956107141E+04   -0.43015E-07   -0.93515E-10  3136   0.472E-05    0.140E-05
DAV:  16    -0.132956107142E+04   -0.16982E-07   -0.10965E-10  3136   0.302E-05    0.123E-05
DAV:  17    -0.132956107143E+04   -0.83091E-08    0.51139E-10  3136   0.200E-05
  27 F= -.13485296E+04 E0= -.13485296E+04  d E =-.108398E-03  mag=     0.0000
       N       E                     dE             d eps       ncg     rms          rms(c)
DAV:   1    -0.132956134543E+04   -0.27400E-03   -0.78965E-02  5088   0.147E-01    0.120E-01
DAV:   2    -0.132956120667E+04    0.13876E-03   -0.10390E-03  5568   0.200E-02    0.665E-02
DAV:   3    -0.132956118592E+04    0.20745E-04   -0.32397E-04  5888   0.103E-02    0.201E-02
DAV:   4    -0.132956118111E+04    0.48107E-05   -0.41135E-05  5888   0.430E-03    0.863E-03
DAV:   5    -0.132956118210E+04   -0.98805E-06   -0.43689E-06  5152   0.151E-03    0.239E-03
DAV:   6    -0.132956118239E+04   -0.29117E-06   -0.76638E-07  5248   0.618E-04    0.118E-03
DAV:   7    -0.132956118274E+04   -0.34294E-06   -0.15901E-07  4912   0.291E-04    0.517E-04
DAV:   8    -0.132956118316E+04   -0.42681E-06   -0.34689E-08  3648   0.135E-04    0.219E-04
DAV:   9    -0.132956118348E+04   -0.31383E-06   -0.10220E-08  3328   0.780E-05    0.133E-04
DAV:  10    -0.132956118381E+04   -0.33769E-06   -0.97210E-09  3488   0.728E-05    0.844E-05
DAV:  11    -0.132956118407E+04   -0.25365E-06   -0.64921E-09  3328   0.618E-05    0.536E-05
DAV:  12    -0.132956118423E+04   -0.16314E-06   -0.33966E-09  3168   0.523E-05    0.388E-05
DAV:  13    -0.132956118440E+04   -0.16631E-06   -0.54618E-09  3360   0.534E-05    0.291E-05
DAV:  14    -0.132956118446E+04   -0.60143E-07   -0.13502E-09  3136   0.491E-05    0.175E-05
DAV:  15    -0.132956118450E+04   -0.41502E-07   -0.94226E-10  3136   0.409E-05    0.137E-05
DAV:  16    -0.132956118451E+04   -0.15920E-07    0.62097E-11  3136   0.254E-05    0.113E-05
DAV:  17    -0.132956118453E+04   -0.13431E-07    0.36044E-10  3136   0.199E-05    0.806E-06
DAV:  18    -0.132956118453E+04   -0.38999E-08    0.54657E-10  3136   0.137E-05
  28 F= -.13485297E+04 E0= -.13485297E+04  d E =-.620715E-04  mag=    -0.0000
       N       E                     dE             d eps       ncg     rms          rms(c)
DAV:   1    -0.132956162649E+04   -0.44196E-03   -0.74071E-02  5056   0.172E-01    0.947E-02
DAV:   2    -0.132956161988E+04    0.66129E-05   -0.10494E-03  5472   0.204E-02    0.572E-02
DAV:   3    -0.132956159481E+04    0.25066E-04   -0.29192E-04  6224   0.149E-02    0.189E-02
DAV:   4    -0.132956158860E+04    0.62083E-05   -0.30996E-05  6016   0.484E-03    0.100E-02
DAV:   5    -0.132956158746E+04    0.11457E-05   -0.10183E-05  5824   0.299E-03    0.356E-03
DAV:   6    -0.132956158741E+04    0.51383E-07   -0.12953E-06  6496   0.133E-03    0.145E-03
DAV:   7    -0.132956158763E+04   -0.22458E-06   -0.21530E-07  5728   0.573E-04    0.813E-04
DAV:   8    -0.132956158810E+04   -0.46640E-06   -0.93348E-08  4768   0.402E-04    0.417E-04
DAV:   9    -0.132956158867E+04   -0.56972E-06   -0.50810E-08  4288   0.261E-04    0.253E-04
DAV:  10    -0.132956158930E+04   -0.62806E-06   -0.37192E-08  3904   0.195E-04    0.162E-04
DAV:  11    -0.132956158980E+04   -0.50718E-06   -0.23130E-08  3776   0.140E-04    0.103E-04
DAV:  12    -0.132956159025E+04   -0.44311E-06   -0.22580E-08  3904   0.123E-04    0.699E-05
DAV:  13    -0.132956159042E+04   -0.17522E-06   -0.38989E-09  3200   0.646E-05    0.514E-05
DAV:  14    -0.132956159059E+04   -0.17132E-06   -0.53495E-09  3328   0.673E-05    0.373E-05
DAV:  15    -0.132956159068E+04   -0.85682E-07   -0.21991E-09  3136   0.621E-05    0.332E-05
DAV:  16    -0.132956159071E+04   -0.36918E-07   -0.10085E-09  3136   0.536E-05    0.174E-05
DAV:  17    -0.132956159074E+04   -0.29861E-07   -0.53307E-10  3136   0.454E-05    0.205E-05
DAV:  18    -0.132956159076E+04   -0.12573E-07    0.25352E-10  3136   0.284E-05    0.191E-05
DAV:  19    -0.132956159076E+04   -0.62864E-08    0.56237E-10  3136   0.204E-05
  29 F= -.13485301E+04 E0= -.13485301E+04  d E =-.393456E-03  mag=    -0.0000
       N       E                     dE             d eps       ncg     rms          rms(c)
DAV:   1    -0.132956145619E+04    0.13456E-03   -0.72194E-02  5152   0.149E-01    0.734E-02
DAV:   2    -0.132956145127E+04    0.49207E-05   -0.82769E-04  5632   0.169E-02    0.464E-02
DAV:   3    -0.132956141804E+04    0.33235E-04   -0.14204E-04  6080   0.138E-02    0.133E-02
DAV:   4    -0.132956141606E+04    0.19794E-05   -0.14381E-05  6080   0.465E-03    0.485E-03
DAV:   5    -0.132956141601E+04    0.44936E-07   -0.40119E-06  5728   0.284E-03    0.218E-03
DAV:   6    -0.132956141611E+04   -0.92114E-07   -0.61479E-07  6496   0.113E-03    0.115E-03
DAV:   7    -0.132956141646E+04   -0.35214E-06   -0.14198E-07  5760   0.513E-04    0.689E-04
DAV:   8    -0.132956141695E+04   -0.49364E-06   -0.78108E-08  5056   0.514E-04    0.348E-04
DAV:   9    -0.132956141755E+04   -0.59987E-06   -0.72069E-08  4768   0.368E-04    0.304E-04
DAV:  10    -0.132956141808E+04   -0.52630E-06   -0.37871E-08  4320   0.230E-04    0.168E-04
DAV:  11    -0.132956141847E+04   -0.39069E-06   -0.16006E-08  3712   0.150E-04    0.117E-04
DAV:  12    -0.132956141879E+04   -0.32193E-06   -0.15183E-08  3776   0.139E-04    0.821E-05
DAV:  13    -0.132956141894E+04   -0.15357E-06   -0.48524E-09  3264   0.917E-05    0.528E-05
DAV:  14    -0.132956141910E+04   -0.15953E-06   -0.62099E-09  3392   0.761E-05    0.459E-05
DAV:  15    -0.132956141916E+04   -0.59561E-07   -0.15023E-09  3136   0.561E-05    0.375E-05
DAV:  16    -0.132956141922E+04   -0.60740E-07   -0.12820E-09  3136   0.464E-05    0.179E-05
DAV:  17    -0.132956141926E+04   -0.40527E-07   -0.52369E-10  3136   0.418E-05    0.233E-05
DAV:  18    -0.132956141928E+04   -0.16487E-07    0.56531E-11  3136   0.304E-05    0.158E-05
DAV:  19    -0.132956141929E+04   -0.14028E-07    0.31240E-10  3136   0.267E-05    0.117E-05
DAV:  20    -0.132956141930E+04   -0.74360E-08    0.63806E-10  3136   0.158E-05
  30 F= -.13485300E+04 E0= -.13485300E+04  d E =0.550251E-04  mag=    -0.0000
       N       E                     dE             d eps       ncg     rms          rms(c)
DAV:   1    -0.132956189351E+04   -0.47421E-03   -0.71286E-02  5216   0.147E-01    0.642E-02
DAV:   2    -0.132956190918E+04   -0.15672E-04   -0.79554E-04  5472   0.130E-02    0.394E-02
DAV:   3    -0.132956187354E+04    0.35640E-04   -0.11654E-04  5824   0.933E-03    0.816E-03
DAV:   4    -0.132956187266E+04    0.87899E-06   -0.82135E-06  6016   0.311E-03    0.426E-03
DAV:   5    -0.132956187271E+04   -0.50801E-07   -0.31602E-06  5920   0.218E-03    0.174E-03
DAV:   6    -0.132956187301E+04   -0.29772E-06   -0.41043E-07  6112   0.753E-04    0.100E-03
DAV:   7    -0.132956187351E+04   -0.49702E-06   -0.78289E-08  4896   0.350E-04    0.570E-04
DAV:   8    -0.132956187430E+04   -0.79221E-06   -0.73769E-08  4800   0.330E-04    0.266E-04
DAV:   9    -0.132956187498E+04   -0.67850E-06   -0.40012E-08  4240   0.201E-04    0.199E-04
DAV:  10    -0.132956187567E+04   -0.68852E-06   -0.31882E-08  3920   0.141E-04    0.131E-04
DAV:  11    -0.132956187621E+04   -0.53893E-06   -0.27595E-08  3968   0.119E-04    0.967E-05
DAV:  12    -0.132956187651E+04   -0.30361E-06   -0.11656E-08  3456   0.988E-05    0.623E-05
DAV:  13    -0.132956187673E+04   -0.21742E-06   -0.76492E-09  3360   0.696E-05    0.509E-05
DAV:  14    -0.132956187684E+04   -0.10943E-06   -0.29493E-09  3136   0.540E-05    0.286E-05
DAV:  15    -0.132956187692E+04   -0.85420E-07   -0.24486E-09  3136   0.499E-05    0.281E-05
DAV:  16    -0.132956187697E+04   -0.50102E-07   -0.10622E-09  3136   0.391E-05    0.227E-05
DAV:  17    -0.132956187700E+04   -0.31490E-07   -0.41002E-10  3136   0.347E-05    0.117E-05
DAV:  18    -0.132956187702E+04   -0.14130E-07    0.16026E-10  3136   0.269E-05    0.148E-05
DAV:  19    -0.132956187703E+04   -0.91532E-08    0.49188E-10  3136   0.178E-05
  31 F= -.13485304E+04 E0= -.13485304E+04  d E =-.327307E-03  mag=     0.0000
       N       E                     dE             d eps       ncg     rms          rms(c)
DAV:   1    -0.132956047556E+04    0.14015E-02   -0.75771E-02  5120   0.168E-01    0.108E-01
DAV:   2    -0.132956032787E+04    0.14769E-03   -0.13946E-03  5920   0.259E-02    0.587E-02
DAV:   3    -0.132956030630E+04    0.21565E-04   -0.46379E-04  5984   0.158E-02    0.250E-02
DAV:   4    -0.132956029793E+04    0.83761E-05   -0.68966E-05  6112   0.627E-03    0.121E-02
DAV:   5    -0.132956029752E+04    0.41275E-06   -0.95282E-06  5440   0.263E-03    0.306E-03
DAV:   6    -0.132956029737E+04    0.14630E-06   -0.15229E-06  6112   0.117E-03    0.149E-03
DAV:   7    -0.132956029753E+04   -0.15862E-06   -0.21129E-07  5376   0.470E-04    0.816E-04
DAV:   8    -0.132956029785E+04   -0.31981E-06   -0.71333E-08  4832   0.440E-04    0.368E-04
DAV:   9    -0.132956029822E+04   -0.37705E-06   -0.47013E-08  4384   0.329E-04    0.245E-04
DAV:  10    -0.132956029866E+04   -0.43228E-06   -0.27893E-08  3776   0.238E-04    0.162E-04
DAV:  11    -0.132956029905E+04   -0.39609E-06   -0.23186E-08  3776   0.226E-04    0.116E-04
DAV:  12    -0.132956029937E+04   -0.31621E-06   -0.21980E-08  3808   0.175E-04    0.776E-05
DAV:  13    -0.132956029955E+04   -0.18299E-06   -0.78266E-09  3392   0.973E-05    0.519E-05
DAV:  14    -0.132956029966E+04   -0.10846E-06   -0.34170E-09  3200   0.612E-05    0.341E-05
DAV:  15    -0.132956029974E+04   -0.77998E-07   -0.23440E-09  3136   0.516E-05    0.233E-05
DAV:  16    -0.132956029980E+04   -0.59095E-07   -0.22551E-09  3200   0.481E-05    0.163E-05
DAV:  17    -0.132956029982E+04   -0.21406E-07   -0.72934E-10  3136   0.413E-05    0.120E-05
DAV:  18    -0.132956029983E+04   -0.10201E-07   -0.10225E-11  3136   0.330E-05    0.774E-06
DAV:  19    -0.132956029983E+04   -0.17753E-08    0.44624E-10  3136   0.219E-05
  32 F= -.13485289E+04 E0= -.13485289E+04  d E =0.143434E-02  mag=     0.0000
       N       E                     dE             d eps       ncg     rms          rms(c)
DAV:   1    -0.132956126729E+04   -0.96746E-03   -0.72268E-02  4992   0.139E-01    0.821E-02
DAV:   2    -0.132956125901E+04    0.82803E-05   -0.44789E-04  5248   0.122E-02    0.484E-02
DAV:   3    -0.132956125879E+04    0.21393E-06   -0.14240E-04  5344   0.685E-03    0.962E-03
DAV:   4    -0.132956125700E+04    0.17907E-05   -0.17645E-05  4992   0.271E-03    0.513E-03
DAV:   5    -0.132956125717E+04   -0.16537E-06   -0.38494E-06  5280   0.133E-03    0.156E-03
DAV:   6    -0.132956125741E+04   -0.24198E-06   -0.26007E-07  4896   0.457E-04    0.801E-04
DAV:   7    -0.132956125770E+04   -0.29115E-06   -0.88246E-08  4384   0.234E-04    0.305E-04
DAV:   8    -0.132956125796E+04   -0.25930E-06   -0.19713E-08  3520   0.112E-04    0.198E-04
DAV:   9    -0.132956125831E+04   -0.34898E-06   -0.21388E-08  3808   0.110E-04    0.101E-04
DAV:  10    -0.132956125849E+04   -0.18023E-06   -0.59625E-09  3424   0.677E-05    0.762E-05
DAV:  11    -0.132956125866E+04   -0.17550E-06   -0.64756E-09  3328   0.644E-05    0.461E-05
DAV:  12    -0.132956125877E+04   -0.10795E-06   -0.35631E-09  3296   0.640E-05    0.292E-05
DAV:  13    -0.132956125885E+04   -0.82102E-07   -0.32158E-09  3168   0.616E-05    0.215E-05
DAV:  14    -0.132956125890E+04   -0.45344E-07   -0.17891E-09  3136   0.496E-05    0.155E-05
DAV:  15    -0.132956125893E+04   -0.29206E-07   -0.66363E-10  3136   0.353E-05    0.106E-05
DAV:  16    -0.132956125895E+04   -0.17943E-07   -0.20607E-10  3136   0.296E-05    0.918E-06
DAV:  17    -0.132956125895E+04   -0.56607E-08    0.34352E-10  3136   0.184E-05
  33 F= -.13485298E+04 E0= -.13485298E+04  d E =-.896980E-03  mag=    -0.0000
       N       E                     dE             d eps       ncg     rms          rms(c)
DAV:   1    -0.132956163744E+04   -0.37849E-03   -0.76263E-02  5056   0.143E-01    0.109E-01
DAV:   2    -0.132956152205E+04    0.11539E-03   -0.88413E-04  5856   0.181E-02    0.602E-02
DAV:   3    -0.132956150673E+04    0.15314E-04   -0.26367E-04  5472   0.924E-03    0.208E-02
DAV:   4    -0.132956150198E+04    0.47529E-05   -0.46302E-05  5888   0.453E-03    0.839E-03
DAV:   5    -0.132956150251E+04   -0.52671E-06   -0.45883E-06  5472   0.160E-03    0.234E-03
DAV:   6    -0.132956150270E+04   -0.19146E-06   -0.65635E-07  4960   0.626E-04    0.125E-03
DAV:   7    -0.132956150306E+04   -0.35980E-06   -0.20788E-07  5216   0.363E-04    0.505E-04
DAV:   8    -0.132956150349E+04   -0.42868E-06   -0.32966E-08  3616   0.150E-04    0.265E-04
DAV:   9    -0.132956150390E+04   -0.41472E-06   -0.16950E-08  3616   0.977E-05    0.146E-04
DAV:  10    -0.132956150437E+04   -0.46988E-06   -0.21036E-08  3616   0.988E-05    0.874E-05
DAV:  11    -0.132956150467E+04   -0.29543E-06   -0.11135E-08  3456   0.726E-05    0.629E-05
DAV:  12    -0.132956150495E+04   -0.27912E-06   -0.13319E-08  3488   0.770E-05    0.436E-05
DAV:  13    -0.132956150507E+04   -0.12883E-06   -0.47737E-09  3232   0.667E-05    0.315E-05
DAV:  14    -0.132956150515E+04   -0.77591E-07   -0.25618E-09  3136   0.600E-05    0.206E-05
DAV:  15    -0.132956150521E+04   -0.55195E-07   -0.16574E-09  3136   0.470E-05    0.210E-05
DAV:  16    -0.132956150523E+04   -0.20082E-07   -0.24414E-10  3136   0.324E-05    0.110E-05
DAV:  17    -0.132956150525E+04   -0.18277E-07   -0.51725E-12  3136   0.284E-05    0.150E-05
DAV:  18    -0.132956150525E+04   -0.44674E-08    0.49003E-10  3136   0.180E-05
  34 F= -.13485300E+04 E0= -.13485300E+04  d E =-.174484E-03  mag=    -0.0000
       N       E                     dE             d eps       ncg     rms          rms(c)
DAV:   1    -0.132955913446E+04    0.23708E-02   -0.28615E-01  4992   0.350E-01    0.119E-01
DAV:   2    -0.132955909891E+04    0.35551E-04   -0.19111E-03  5440   0.294E-02    0.753E-02
DAV:   3    -0.132955903142E+04    0.67490E-04   -0.46925E-04  5632   0.135E-02    0.146E-02
DAV:   4    -0.132955903413E+04   -0.27052E-05   -0.64257E-05  5856   0.374E-03    0.744E-03
DAV:   5    -0.132955903447E+04   -0.34104E-06   -0.46431E-06  5760   0.131E-03    0.313E-03
DAV:   6    -0.132955903481E+04   -0.33855E-06   -0.87993E-07  5120   0.827E-04    0.115E-03
DAV:   7    -0.132955903530E+04   -0.49575E-06   -0.30568E-07  4992   0.364E-04    0.446E-04
DAV:   8    -0.132955903576E+04   -0.45419E-06   -0.51441E-08  3872   0.151E-04    0.310E-04
DAV:   9    -0.132955903645E+04   -0.69285E-06   -0.32039E-08  3616   0.130E-04    0.143E-04
DAV:  10    -0.132955903702E+04   -0.57106E-06   -0.30067E-08  3840   0.130E-04    0.991E-05
DAV:  11    -0.132955903738E+04   -0.35686E-06   -0.11604E-08  3360   0.833E-05    0.754E-05
DAV:  12    -0.132955903770E+04   -0.32065E-06   -0.12560E-08  3488   0.847E-05    0.400E-05
DAV:  13    -0.132955903789E+04   -0.19054E-06   -0.72193E-09  3296   0.838E-05    0.331E-05
DAV:  14    -0.132955903798E+04   -0.84416E-07   -0.26556E-09  3136   0.682E-05    0.236E-05
DAV:  15    -0.132955903805E+04   -0.78595E-07   -0.19931E-09  3136   0.566E-05    0.170E-05
DAV:  16    -0.132955903809E+04   -0.40047E-07   -0.71873E-10  3136   0.451E-05    0.125E-05
DAV:  17    -0.132955903811E+04   -0.17535E-07   -0.43723E-11  3136   0.337E-05    0.104E-05
DAV:  18    -0.132955903812E+04   -0.84547E-08    0.39746E-10  3136   0.186E-05
  35 F= -.13485276E+04 E0= -.13485276E+04  d E =0.236855E-02  mag=    -0.0000
       N       E                     dE             d eps       ncg     rms          rms(c)
DAV:   1    -0.132955952095E+04   -0.48284E-03   -0.49237E-01  5088   0.454E-01    0.150E-01
DAV:   2    -0.132955944398E+04    0.76968E-04   -0.34884E-03  5248   0.403E-02    0.886E-02
DAV:   3    -0.132955931469E+04    0.12929E-03   -0.67650E-04  5520   0.164E-02    0.230E-02
DAV:   4    -0.132955931670E+04   -0.20086E-05   -0.63720E-05  5472   0.508E-03    0.110E-02
DAV:   5    -0.132955931713E+04   -0.43452E-06   -0.97460E-06  6272   0.213E-03    0.499E-03
DAV:   6    -0.132955931731E+04   -0.17963E-06   -0.14181E-06  5088   0.964E-04    0.198E-03
DAV:   7    -0.132955931764E+04   -0.33107E-06   -0.31142E-07  5408   0.465E-04    0.711E-04
DAV:   8    -0.132955931787E+04   -0.23081E-06   -0.84120E-08  4064   0.250E-04    0.339E-04
DAV:   9    -0.132955931805E+04   -0.17851E-06   -0.14228E-08  3456   0.118E-04    0.185E-04
DAV:  10    -0.132955931825E+04   -0.20221E-06   -0.10199E-08  3584   0.118E-04    0.103E-04
DAV:  11    -0.132955931842E+04   -0.16628E-06   -0.95165E-09  3520   0.120E-04    0.613E-05
DAV:  12    -0.132955931851E+04   -0.91764E-07   -0.52182E-09  3360   0.958E-05    0.445E-05
DAV:  13    -0.132955931856E+04   -0.53376E-07   -0.28944E-09  3136   0.736E-05    0.313E-05
DAV:  14    -0.132955931861E+04   -0.43292E-07   -0.24052E-09  3136   0.581E-05    0.160E-05
DAV:  15    -0.132955931863E+04   -0.19762E-07   -0.99664E-10  3136   0.454E-05    0.135E-05
DAV:  16    -0.132955931864E+04   -0.11525E-07   -0.37756E-10  3136   0.364E-05    0.930E-06
DAV:  17    -0.132955931865E+04   -0.84838E-08    0.24896E-11  3136   0.266E-05
  36 F= -.13485280E+04 E0= -.13485280E+04  d E =-.387572E-03  mag=    -0.0000
       N       E                     dE             d eps       ncg     rms          rms(c)
DAV:   1    -0.132955996862E+04   -0.64998E-03   -0.49011E-01  4992   0.448E-01    0.153E-01
DAV:   2    -0.132955986720E+04    0.10143E-03   -0.33976E-03  5312   0.395E-02    0.881E-02
DAV:   3    -0.132955975476E+04    0.11244E-03   -0.75607E-04  5856   0.168E-02    0.237E-02
DAV:   4    -0.132955975491E+04   -0.15479E-06   -0.95094E-05  5952   0.545E-03    0.996E-03
DAV:   5    -0.132955975580E+04   -0.88930E-06   -0.10481E-05  6144   0.212E-03    0.422E-03
DAV:   6    -0.132955975619E+04   -0.39005E-06   -0.11867E-06  5184   0.862E-04    0.180E-03
DAV:   7    -0.132955975658E+04   -0.38839E-06   -0.28477E-07  5056   0.383E-04    0.686E-04
DAV:   8    -0.132955975687E+04   -0.29204E-06   -0.53217E-08  4096   0.182E-04    0.312E-04
DAV:   9    -0.132955975717E+04   -0.29267E-06   -0.11856E-08  3520   0.926E-05    0.168E-04
DAV:  10    -0.132955975751E+04   -0.34703E-06   -0.14419E-08  3776   0.885E-05    0.900E-05
DAV:  11    -0.132955975774E+04   -0.22528E-06   -0.68088E-09  3456   0.666E-05    0.634E-05
DAV:  12    -0.132955975794E+04   -0.20269E-06   -0.82760E-09  3600   0.679E-05    0.442E-05
DAV:  13    -0.132955975805E+04   -0.10896E-06   -0.37897E-09  3232   0.542E-05    0.277E-05
DAV:  14    -0.132955975813E+04   -0.75917E-07   -0.30804E-09  3168   0.474E-05    0.164E-05
DAV:  15    -0.132955975816E+04   -0.34866E-07   -0.13358E-09  3136   0.427E-05    0.133E-05
DAV:  16    -0.132955975818E+04   -0.21246E-07   -0.66249E-10  3136   0.362E-05    0.862E-06
DAV:  17    -0.132955975819E+04   -0.10608E-07   -0.90743E-11  3136   0.276E-05    0.842E-06
DAV:  18    -0.132955975820E+04   -0.35943E-08    0.41823E-10  3136   0.155E-05
  37 F= -.13485281E+04 E0= -.13485281E+04  d E =-.900120E-04  mag=    -0.0000
       N       E                     dE             d eps       ncg     rms          rms(c)
DAV:   1    -0.132955875761E+04    0.10006E-02   -0.50127E-01  5056   0.475E-01    0.162E-01
DAV:   2    -0.132955871971E+04    0.37900E-04   -0.52474E-03  5504   0.466E-02    0.100E-01
DAV:   3    -0.132955853006E+04    0.18966E-03   -0.10503E-03  5824   0.202E-02    0.336E-02
DAV:   4    -0.132955852467E+04    0.53828E-05   -0.15158E-04  5856   0.628E-03    0.152E-02
DAV:   5    -0.132955852452E+04    0.15125E-06   -0.17666E-05  6128   0.275E-03    0.566E-03
DAV:   6    -0.132955852499E+04   -0.46327E-06   -0.40567E-06  4896   0.146E-03    0.263E-03
DAV:   7    -0.132955852636E+04   -0.13760E-05   -0.73875E-07  5696   0.650E-04    0.817E-04
DAV:   8    -0.132955852798E+04   -0.16151E-05   -0.12555E-07  4640   0.275E-04    0.476E-04
DAV:   9    -0.132955852980E+04   -0.18227E-05   -0.74878E-08  4224   0.203E-04    0.286E-04
DAV:  10    -0.132955853192E+04   -0.21178E-05   -0.12227E-07  4320   0.221E-04    0.181E-04
DAV:  11    -0.132955853337E+04   -0.14490E-05   -0.80318E-08  4336   0.176E-04    0.133E-04
DAV:  12    -0.132955853416E+04   -0.79600E-06   -0.30196E-08  3776   0.115E-04    0.856E-05
DAV:  13    -0.132955853472E+04   -0.55668E-06   -0.19204E-08  3616   0.874E-05    0.539E-05
DAV:  14    -0.132955853502E+04   -0.29897E-06   -0.70815E-09  3264   0.739E-05    0.350E-05
DAV:  15    -0.132955853523E+04   -0.21113E-06   -0.57860E-09  3264   0.673E-05    0.239E-05
DAV:  16    -0.132955853533E+04   -0.99579E-07   -0.23527E-09  3136   0.613E-05    0.149E-05
DAV:  17    -0.132955853539E+04   -0.57262E-07   -0.11998E-09  3136   0.545E-05    0.118E-05
DAV:  18    -0.132955853541E+04   -0.22032E-07   -0.13591E-10  3136   0.349E-05    0.103E-05
DAV:  19    -0.132955853542E+04   -0.14741E-07    0.34711E-10  3072   0.206E-05    0.582E-06
DAV:  20    -0.132955853543E+04   -0.63301E-08    0.55675E-10  3072   0.146E-05
  38 F= -.13485273E+04 E0= -.13485273E+04  d E =0.769353E-03  mag=    -0.0000
       N       E                     dE             d eps       ncg     rms          rms(c)
DAV:   1    -0.132955999491E+04   -0.14595E-02   -0.51750E-01  5056   0.475E-01    0.190E-01
DAV:   2    -0.132955946891E+04    0.52600E-03   -0.44811E-03  5504   0.499E-02    0.101E-01
DAV:   3    -0.132955928222E+04    0.18670E-03   -0.14860E-03  5696   0.236E-02    0.356E-02
DAV:   4    -0.132955927172E+04    0.10495E-04   -0.19895E-04  5696   0.796E-03    0.175E-02
DAV:   5    -0.132955927256E+04   -0.84314E-06   -0.32255E-05  6240   0.364E-03    0.488E-03
DAV:   6    -0.132955927316E+04   -0.59826E-06   -0.36885E-06  5280   0.154E-03    0.279E-03
DAV:   7    -0.132955927408E+04   -0.91497E-06   -0.60800E-07  5696   0.662E-04    0.101E-03
DAV:   8    -0.132955927507E+04   -0.99045E-06   -0.11547E-07  4960   0.327E-04    0.463E-04
DAV:   9    -0.132955927630E+04   -0.12373E-05   -0.57314E-08  4416   0.227E-04    0.297E-04
DAV:  10    -0.132955927781E+04   -0.15090E-05   -0.82670E-08  4256   0.222E-04    0.182E-04
DAV:  11    -0.132955927892E+04   -0.11034E-05   -0.58102E-08  4192   0.168E-04    0.121E-04
DAV:  12    -0.132955927958E+04   -0.66262E-06   -0.22832E-08  3648   0.985E-05    0.786E-05
DAV:  13    -0.132955927997E+04   -0.39389E-06   -0.11050E-08  3424   0.754E-05    0.532E-05
DAV:  14    -0.132955928025E+04   -0.27976E-06   -0.83542E-09  3296   0.756E-05    0.333E-05
DAV:  15    -0.132955928041E+04   -0.15293E-06   -0.53761E-09  3168   0.682E-05    0.226E-05
DAV:  16    -0.132955928047E+04   -0.66095E-07   -0.21442E-09  3136   0.535E-05    0.152E-05
DAV:  17    -0.132955928052E+04   -0.48385E-07   -0.13056E-09  3136   0.421E-05    0.110E-05
DAV:  18    -0.132955928054E+04   -0.16458E-07   -0.15027E-10  3136   0.342E-05    0.918E-06
DAV:  19    -0.132955928055E+04   -0.88476E-08    0.25389E-10  3136   0.231E-05
  39 F= -.13485279E+04 E0= -.13485279E+04  d E =-.569795E-03  mag=     0.0000
       N       E                     dE             d eps       ncg     rms          rms(c)
DAV:   1    -0.132956117659E+04   -0.18960E-02   -0.50278E-01  5056   0.475E-01    0.149E-01
DAV:   2    -0.132956107169E+04    0.10489E-03   -0.32555E-03  5376   0.369E-02    0.919E-02
DAV:   3    -0.132956091804E+04    0.15365E-03   -0.76114E-04  5472   0.183E-02    0.177E-02
DAV:   4    -0.132956092678E+04   -0.87373E-05   -0.11858E-04  5952   0.553E-03    0.893E-03
DAV:   5    -0.132956092614E+04    0.64092E-06   -0.96149E-06  6192   0.259E-03    0.403E-03
DAV:   6    -0.132956092656E+04   -0.41924E-06   -0.11226E-06  5760   0.862E-04    0.179E-03
DAV:   7    -0.132956092761E+04   -0.10515E-05   -0.38530E-07  4768   0.503E-04    0.604E-04
DAV:   8    -0.132956092874E+04   -0.11312E-05   -0.11357E-07  4736   0.280E-04    0.404E-04
DAV:   9    -0.132956093057E+04   -0.18281E-05   -0.82148E-08  4096   0.250E-04    0.249E-04
DAV:  10    -0.132956093200E+04   -0.14316E-05   -0.64539E-08  4256   0.195E-04    0.160E-04
DAV:  11    -0.132956093326E+04   -0.12584E-05   -0.54498E-08  4064   0.157E-04    0.123E-04
DAV:  12    -0.132956093396E+04   -0.70139E-06   -0.20963E-08  3648   0.108E-04    0.778E-05
DAV:  13    -0.132956093442E+04   -0.45900E-06   -0.12492E-08  3488   0.807E-05    0.520E-05
DAV:  14    -0.132956093468E+04   -0.25825E-06   -0.61636E-09  3232   0.663E-05    0.345E-05
DAV:  15    -0.132956093482E+04   -0.14274E-06   -0.37761E-09  3136   0.570E-05    0.259E-05
DAV:  16    -0.132956093490E+04   -0.80501E-07   -0.18089E-09  3136   0.503E-05    0.178E-05
DAV:  17    -0.132956093494E+04   -0.40134E-07   -0.94089E-10  3136   0.418E-05    0.109E-05
DAV:  18    -0.132956093496E+04   -0.18772E-07   -0.15556E-10  3136   0.331E-05    0.998E-06
DAV:  19    -0.132956093497E+04   -0.10943E-07    0.33795E-10  3136   0.200E-05    0.647E-06
DAV:  20    -0.132956093497E+04   -0.53114E-08    0.60083E-10  3136   0.139E-05
  40 F= -.13485295E+04 E0= -.13485295E+04  d E =-.162922E-02  mag=     0.0000
       N       E                     dE             d eps       ncg     rms          rms(c)
DAV:   1    -0.132955889979E+04    0.20352E-02   -0.48342E-01  5056   0.496E-01    0.145E-01
DAV:   2    -0.132955892856E+04   -0.28769E-04   -0.40983E-03  5504   0.411E-02    0.906E-02
DAV:   3    -0.132955879372E+04    0.13484E-03   -0.75236E-04  6048   0.196E-02    0.261E-02
DAV:   4    -0.132955879343E+04    0.28589E-06   -0.13459E-04  6080   0.640E-03    0.146E-02
DAV:   5    -0.132955879299E+04    0.44207E-06   -0.15856E-05  6400   0.314E-03    0.640E-03
DAV:   6    -0.132955879366E+04   -0.67033E-06   -0.20892E-06  5920   0.157E-03    0.300E-03
DAV:   7    -0.132955879502E+04   -0.13553E-05   -0.71895E-07  5712   0.990E-04    0.108E-03
DAV:   8    -0.132955879699E+04   -0.19742E-05   -0.29710E-07  5632   0.559E-04    0.774E-04
DAV:   9    -0.132955880047E+04   -0.34808E-05   -0.21159E-07  4544   0.470E-04    0.447E-04
DAV:  10    -0.132955880361E+04   -0.31353E-05   -0.23412E-07  5056   0.487E-04    0.284E-04
DAV:  11    -0.132955880589E+04   -0.22830E-05   -0.13666E-07  4416   0.343E-04    0.209E-04
DAV:  12    -0.132955880717E+04   -0.12761E-05   -0.41326E-08  4096   0.138E-04    0.126E-04
DAV:  13    -0.132955880826E+04   -0.10982E-05   -0.36032E-08  3872   0.106E-04    0.846E-05
DAV:  14    -0.132955880874E+04   -0.47579E-06   -0.86557E-09  3296   0.789E-05    0.532E-05
DAV:  15    -0.132955880913E+04   -0.38712E-06   -0.10240E-08  3328   0.870E-05    0.381E-05
DAV:  16    -0.132955880924E+04   -0.11468E-06   -0.27147E-09  3136   0.709E-05    0.293E-05
DAV:  17    -0.132955880934E+04   -0.96436E-07   -0.21089E-09  3136   0.571E-05    0.163E-05
DAV:  18    -0.132955880937E+04   -0.28158E-07   -0.57367E-10  3136   0.417E-05    0.177E-05
DAV:  19    -0.132955880938E+04   -0.12878E-07    0.17922E-10  3136   0.288E-05    0.108E-05
DAV:  20    -0.132955880939E+04   -0.11030E-07    0.29917E-10  3072   0.235E-05    0.928E-06
DAV:  21    -0.132955880939E+04   -0.15134E-08    0.61965E-10  3008   0.133E-05
  41 F= -.13485273E+04 E0= -.13485273E+04  d E =0.227487E-02  mag=     0.0000
       N       E                     dE             d eps       ncg     rms          rms(c)
DAV:   1    -0.132955946321E+04   -0.65382E-03   -0.50490E-01  5056   0.476E-01    0.185E-01
DAV:   2    -0.132955940189E+04    0.61317E-04   -0.49996E-03  5504   0.508E-02    0.105E-01
DAV:   3    -0.132955924513E+04    0.15676E-03   -0.11349E-03  5568   0.205E-02    0.343E-02
DAV:   4    -0.132955923979E+04    0.53399E-05   -0.11131E-04  5792   0.636E-03    0.183E-02
DAV:   5    -0.132955923783E+04    0.19556E-05   -0.33589E-05  5920   0.385E-03    0.638E-03
DAV:   6    -0.132955923991E+04   -0.20838E-05   -0.44752E-06  5600   0.163E-03    0.253E-03
DAV:   7    -0.132955924198E+04   -0.20690E-05   -0.74167E-07  5696   0.693E-04    0.979E-04
DAV:   8    -0.132955924425E+04   -0.22700E-05   -0.24131E-07  5248   0.341E-04    0.689E-04
DAV:   9    -0.132955924683E+04   -0.25750E-05   -0.12303E-07  4384   0.224E-04    0.333E-04
DAV:  10    -0.132955924945E+04   -0.26223E-05   -0.14399E-07  4432   0.199E-04    0.267E-04
DAV:  11    -0.132955925161E+04   -0.21581E-05   -0.12957E-07  4368   0.187E-04    0.178E-04
DAV:  12    -0.132955925276E+04   -0.11525E-05   -0.55263E-08  4128   0.125E-04    0.105E-04
DAV:  13    -0.132955925341E+04   -0.64487E-06   -0.19463E-08  3552   0.839E-05    0.886E-05
DAV:  14    -0.132955925368E+04   -0.27324E-06   -0.51528E-09  3200   0.612E-05    0.527E-05
DAV:  15    -0.132955925391E+04   -0.23405E-06   -0.52770E-09  3296   0.618E-05    0.312E-05
DAV:  16    -0.132955925407E+04   -0.15901E-06   -0.38128E-09  3168   0.577E-05    0.222E-05
DAV:  17    -0.132955925415E+04   -0.77300E-07   -0.12766E-09  3136   0.487E-05    0.163E-05
DAV:  18    -0.132955925418E+04   -0.33659E-07   -0.43840E-10  3136   0.415E-05    0.100E-05
DAV:  19    -0.132955925420E+04   -0.15105E-07    0.13307E-10  3104   0.272E-05    0.942E-06
DAV:  20    -0.132955925421E+04   -0.97207E-08    0.51591E-10  3072   0.161E-05
  42 F= -.13485277E+04 E0= -.13485277E+04  d E =-.469699E-03  mag=     0.0000
       N       E                     dE             d eps       ncg     rms          rms(c)
DAV:   1    -0.132956035009E+04   -0.10959E-02   -0.48390E-01  5056   0.496E-01    0.147E-01
DAV:   2    -0.132956052116E+04   -0.17108E-03   -0.42765E-03  5888   0.434E-02    0.908E-02
DAV:   3    -0.132956042651E+04    0.94656E-04   -0.49548E-04  5728   0.161E-02    0.301E-02
DAV:   4    -0.132956043681E+04   -0.10304E-04   -0.11004E-04  6272   0.597E-03    0.119E-02
DAV:   5    -0.132956043550E+04    0.13129E-05   -0.19841E-05  5792   0.374E-03    0.455E-03
DAV:   6    -0.132956043670E+04   -0.12006E-05   -0.30887E-06  6080   0.132E-03    0.211E-03
DAV:   7    -0.132956043790E+04   -0.12032E-05   -0.35322E-07  5264   0.524E-04    0.997E-04
DAV:   8    -0.132956043939E+04   -0.14886E-05   -0.12755E-07  4720   0.313E-04    0.365E-04
DAV:   9    -0.132956044048E+04   -0.10882E-05   -0.29847E-08  4016   0.171E-04    0.246E-04
DAV:  10    -0.132956044211E+04   -0.16289E-05   -0.60043E-08  4256   0.194E-04    0.158E-04
DAV:  11    -0.132956044318E+04   -0.10687E-05   -0.36939E-08  4256   0.149E-04    0.111E-04
DAV:  12    -0.132956044399E+04   -0.81475E-06   -0.24656E-08  4096   0.110E-04    0.724E-05
DAV:  13    -0.132956044437E+04   -0.38090E-06   -0.69508E-09  3488   0.682E-05    0.526E-05
DAV:  14    -0.132956044466E+04   -0.29082E-06   -0.70652E-09  3488   0.666E-05    0.352E-05
DAV:  15    -0.132956044478E+04   -0.11669E-06   -0.23658E-09  3136   0.524E-05    0.250E-05
DAV:  16    -0.132956044486E+04   -0.81665E-07   -0.21542E-09  3136   0.487E-05    0.192E-05
DAV:  17    -0.132956044489E+04   -0.31418E-07   -0.76029E-10  3136   0.432E-05    0.169E-05
DAV:  18    -0.132956044491E+04   -0.11554E-07   -0.14677E-10  3136   0.296E-05    0.895E-06
DAV:  19    -0.132956044491E+04   -0.74360E-08    0.27528E-10  3072   0.233E-05
  43 F= -.13485288E+04 E0= -.13485288E+04  d E =-.111229E-02  mag=     0.0000
