 vasp.5.4.4.18Apr17-6-g9f103f2a35 (build Oct 13 2017 11:24:24) complex          
  
 executed on             LinuxIFC date 2021.11.06  13:09:08
 running on   48 total cores
 distrk:  each k-point on   48 cores,    1 groups
 distr:  one band on NCORES_PER_BAND=   6 cores,    8 groups


--------------------------------------------------------------------------------------------------------


 INCAR:
 POTCAR:    PAW_PBE Zr_sv 04Jan2005               
 POTCAR:    PAW_PBE O 08Apr2002                   
 POTCAR:    PAW_PBE H 15Jun2001                   
 POTCAR:    PAW_PBE C 08Apr2002                   
 POTCAR:    PAW_PBE Zr_sv 04Jan2005               
   VRHFIN =Zr: 4s4p5s4d                                                         
   LEXCH  = PE                                                                  
   EATOM  =  1284.2219 eV,   94.3876 Ry                                         
                                                                                
   TITEL  = PAW_PBE Zr_sv 04Jan2005                                             
   LULTRA =        F    use ultrasoft PP ?                                      
   IUNSCR =        1    unscreen: 0-lin 1-nonlin 2-no                           
   RPACOR =    2.200    partial core radius                                     
   POMASS =   91.224; ZVAL   =   12.000    mass and valenz                      
   RCORE  =    2.500    outmost cutoff radius                                   
   RWIGS  =    3.070; RWIGS  =    1.625    wigner-seitz radius (au A)           
   ENMAX  =  229.898; ENMIN  =  172.424 eV                                      
   ICORE  =        3    local potential                                         
   LCOR   =        T    correct aug charges                                     
   LPAW   =        T    paw PP                                                  
   EAUG   =  461.257                                                            
   DEXC   =    0.000                                                            
   RMAX   =    2.561    core radius for proj-oper                               
   RAUG   =    1.300    factor for augmentation sphere                          
   RDEP   =    2.597    radius for radial grids                                 
   RDEPT  =    2.007    core radius for aug-charge                              
                                                                                
   Atomic configuration                                                         
   11 entries                                                                   
     n  l   j            E        occ.                                          
     1  0  0.50    -17820.0161   2.0000                                         
     2  0  0.50     -2467.0882   2.0000                                         
     2  1  1.50     -2199.6095   6.0000                                         
     3  0  0.50      -402.4863   2.0000                                         
     3  1  1.50      -315.3675   6.0000                                         
     3  2  2.50      -172.4472  10.0000                                         
     4  0  0.50       -52.4146   2.0000                                         
     5  0  0.50        -3.8421   1.0000                                         
     4  1  1.50       -30.5054   6.0000                                         
     4  2  2.50        -2.3341   3.0000                                         
     4  3  2.50        -1.3606   0.0000                                         
   Description                                                                  
     l       E           TYP  RCUT    TYP  RCUT                                 
     0    -52.4145962     23  2.200                                             
     0     -3.8421270     23  2.500                                             
     1    -30.5053914     23  2.200                                             
     1     20.4087390     23  2.200                                             
     2     -2.3340816     23  2.500                                             
     2     -0.6120942     23  2.500                                             
     3     -4.0817478     23  2.500                                             
  local pseudopotential read in
  partial core-charges read in
  partial kinetic energy density read in
  atomic valenz-charges read in
  non local Contribution for L=           0  read in
    real space projection operators read in
  non local Contribution for L=           0  read in
    real space projection operators read in
  non local Contribution for L=           1  read in
    real space projection operators read in
  non local Contribution for L=           1  read in
    real space projection operators read in
  non local Contribution for L=           2  read in
    real space projection operators read in
  non local Contribution for L=           2  read in
    real space projection operators read in
    PAW grid and wavefunctions read in
 
   number of l-projection  operators is LMAX  =           6
   number of lm-projection operators is LMMAX =          18
 
 POTCAR:    PAW_PBE O 08Apr2002                   
   VRHFIN =O: s2p4                                                              
   LEXCH  = PE                                                                  
   EATOM  =   432.3788 eV,   31.7789 Ry                                         
                                                                                
   TITEL  = PAW_PBE O 08Apr2002                                                 
   LULTRA =        F    use ultrasoft PP ?                                      
   IUNSCR =        1    unscreen: 0-lin 1-nonlin 2-no                           
   RPACOR =    1.200    partial core radius                                     
   POMASS =   16.000; ZVAL   =    6.000    mass and valenz                      
   RCORE  =    1.520    outmost cutoff radius                                   
   RWIGS  =    1.550; RWIGS  =    0.820    wigner-seitz radius (au A)           
   ENMAX  =  400.000; ENMIN  =  300.000 eV                                      
   ICORE  =        2    local potential                                         
   LCOR   =        T    correct aug charges                                     
   LPAW   =        T    paw PP                                                  
   EAUG   =  605.392                                                            
   DEXC   =    0.000                                                            
   RMAX   =    1.553    core radius for proj-oper                               
   RAUG   =    1.300    factor for augmentation sphere                          
   RDEP   =    1.550    radius for radial grids                                 
   RDEPT  =    1.329    core radius for aug-charge                              
                                                                                
   Atomic configuration                                                         
    4 entries                                                                   
     n  l   j            E        occ.                                          
     1  0  0.50      -514.6923   2.0000                                         
     2  0  0.50       -23.9615   2.0000                                         
     2  1  0.50        -9.0305   4.0000                                         
     3  2  1.50        -9.5241   0.0000                                         
   Description                                                                  
     l       E           TYP  RCUT    TYP  RCUT                                 
     0    -23.9615318     23  1.200                                             
     0     -9.5240782     23  1.200                                             
     1     -9.0304911     23  1.520                                             
     1      8.1634956     23  1.520                                             
     2     -9.5240782      7  1.500                                             
  local pseudopotential read in
  partial core-charges read in
  partial kinetic energy density read in
  kinetic energy density of atom read in
  atomic valenz-charges read in
  non local Contribution for L=           0  read in
    real space projection operators read in
  non local Contribution for L=           0  read in
    real space projection operators read in
  non local Contribution for L=           1  read in
    real space projection operators read in
  non local Contribution for L=           1  read in
    real space projection operators read in
    PAW grid and wavefunctions read in
 
   number of l-projection  operators is LMAX  =           4
   number of lm-projection operators is LMMAX =           8
 
 POTCAR:    PAW_PBE H 15Jun2001                   
   VRHFIN =H: ultrasoft test                                                    
   LEXCH  = PE                                                                  
   EATOM  =    12.4884 eV,    0.9179 Ry                                         
                                                                                
   TITEL  = PAW_PBE H 15Jun2001                                                 
   LULTRA =        F    use ultrasoft PP ?                                      
   IUNSCR =        0    unscreen: 0-lin 1-nonlin 2-no                           
   RPACOR =    0.000    partial core radius                                     
   POMASS =    1.000; ZVAL   =    1.000    mass and valenz                      
   RCORE  =    1.100    outmost cutoff radius                                   
   RWIGS  =    0.700; RWIGS  =    0.370    wigner-seitz radius (au A)           
   ENMAX  =  250.000; ENMIN  =  200.000 eV                                      
   RCLOC  =    0.701    cutoff for local pot                                    
   LCOR   =        T    correct aug charges                                     
   LPAW   =        T    paw PP                                                  
   EAUG   =  400.000                                                            
   RMAX   =    1.123    core radius for proj-oper                               
   RAUG   =    1.200    factor for augmentation sphere                          
   RDEP   =    1.112    radius for radial grids                                 
   RDEPT  =    0.926    core radius for aug-charge                              
                                                                                
   Atomic configuration                                                         
    2 entries                                                                   
     n  l   j            E        occ.                                          
     1  0  0.50        -6.4927   1.0000                                         
     2  1  0.50        -3.4015   0.0000                                         
   Description                                                                  
     l       E           TYP  RCUT    TYP  RCUT                                 
     0     -6.4927494     23  1.100                                             
     0      6.8029130     23  1.100                                             
     1     -4.0817478     23  1.100                                             
  local pseudopotential read in
  atomic valenz-charges read in
  non local Contribution for L=           0  read in
    real space projection operators read in
  non local Contribution for L=           0  read in
    real space projection operators read in
  non local Contribution for L=           1  read in
    real space projection operators read in
    PAW grid and wavefunctions read in
 
   number of l-projection  operators is LMAX  =           3
   number of lm-projection operators is LMMAX =           5
 
 POTCAR:    PAW_PBE C 08Apr2002                   
   VRHFIN =C: s2p2                                                              
   LEXCH  = PE                                                                  
   EATOM  =   147.1560 eV,   10.8157 Ry                                         
                                                                                
   TITEL  = PAW_PBE C 08Apr2002                                                 
   LULTRA =        F    use ultrasoft PP ?                                      
   IUNSCR =        1    unscreen: 0-lin 1-nonlin 2-no                           
   RPACOR =    1.200    partial core radius                                     
   POMASS =   12.011; ZVAL   =    4.000    mass and valenz                      
   RCORE  =    1.500    outmost cutoff radius                                   
   RWIGS  =    1.630; RWIGS  =    0.863    wigner-seitz radius (au A)           
   ENMAX  =  400.000; ENMIN  =  300.000 eV                                      
   ICORE  =        2    local potential                                         
   LCOR   =        T    correct aug charges                                     
   LPAW   =        T    paw PP                                                  
   EAUG   =  644.873                                                            
   DEXC   =    0.000                                                            
   RMAX   =    1.529    core radius for proj-oper                               
   RAUG   =    1.300    factor for augmentation sphere                          
   RDEP   =    1.501    radius for radial grids                                 
   RDEPT  =    1.300    core radius for aug-charge                              
                                                                                
   Atomic configuration                                                         
    4 entries                                                                   
     n  l   j            E        occ.                                          
     1  0  0.50      -273.3789   2.0000                                         
     2  0  0.50       -13.7508   2.0000                                         
     2  1  0.50        -5.2854   2.0000                                         
     3  2  1.50        -5.4423   0.0000                                         
   Description                                                                  
     l       E           TYP  RCUT    TYP  RCUT                                 
     0    -13.7508458     23  1.200                                             
     0     -8.2022199     23  1.200                                             
     1     -5.2854383     23  1.500                                             
     1     34.0145650     23  1.500                                             
     2     -5.4423304      7  1.500                                             
  local pseudopotential read in
  partial core-charges read in
  partial kinetic energy density read in
  atomic valenz-charges read in
  non local Contribution for L=           0  read in
    real space projection operators read in
  non local Contribution for L=           0  read in
    real space projection operators read in
  non local Contribution for L=           1  read in
    real space projection operators read in
  non local Contribution for L=           1  read in
    real space projection operators read in
    PAW grid and wavefunctions read in
 
   number of l-projection  operators is LMAX  =           4
   number of lm-projection operators is LMMAX =           8
 
 Optimization of the real space projectors (new method)

 maximal supplied QI-value         = 15.12
 optimisation between [QCUT,QGAM] = [ 11.34, 22.83] = [ 36.00,145.93] Ry 
 Optimized for a Real-space Cutoff    1.47 Angstroem

   l    n(q)    QCUT    max X(q) W(low)/X(q) W(high)/X(q)  e(spline) 
   0     10    11.338    12.107    0.38E-04    0.13E-04    0.27E-07
   0     10    11.338     9.948    0.69E-04    0.30E-04    0.38E-07
   1     10    11.338     3.563    0.26E-04    0.18E-04    0.40E-07
   1     10    11.338     4.524    0.25E-03    0.39E-04    0.44E-06
   2      9    11.338    87.261    0.26E-03    0.91E-05    0.26E-06
   2      9    11.338    70.950    0.25E-03    0.91E-05    0.25E-06
 Optimization of the real space projectors (new method)

 maximal supplied QI-value         = 24.76
 optimisation between [QCUT,QGAM] = [ 11.39, 22.77] = [ 36.31,145.25] Ry 
 Optimized for a Real-space Cutoff    1.00 Angstroem

   l    n(q)    QCUT    max X(q) W(low)/X(q) W(high)/X(q)  e(spline) 
   0      7    11.387    20.381    0.39E-03    0.13E-02    0.15E-06
   0      7    11.387    15.268    0.42E-03    0.14E-02    0.17E-06
   1      6    11.387     5.964    0.41E-03    0.11E-02    0.17E-06
   1      6    11.387     5.382    0.39E-03    0.87E-03    0.15E-06
 Optimization of the real space projectors (new method)

 maximal supplied QI-value         = 34.20
 optimisation between [QCUT,QGAM] = [ 11.29, 22.57] = [ 35.68,142.71] Ry 
 Optimized for a Real-space Cutoff    1.16 Angstroem

   l    n(q)    QCUT    max X(q) W(low)/X(q) W(high)/X(q)  e(spline) 
   0      8    11.287    19.460    0.40E-03    0.73E-03    0.16E-06
   0      8    11.287    12.209    0.38E-03    0.70E-03    0.15E-06
   1      7    11.287     4.655    0.22E-03    0.25E-04    0.22E-06
 Optimization of the real space projectors (new method)

 maximal supplied QI-value         = 25.13
 optimisation between [QCUT,QGAM] = [ 11.31, 22.87] = [ 35.82,146.48] Ry 
 Optimized for a Real-space Cutoff    1.00 Angstroem

   l    n(q)    QCUT    max X(q) W(low)/X(q) W(high)/X(q)  e(spline) 
   0      7    11.310   115.676    0.43E-03    0.13E-02    0.19E-06
   0      7    11.310    87.132    0.43E-03    0.13E-02    0.18E-06
   1      6    11.310     4.429    0.42E-03    0.74E-03    0.11E-06
   1      6    11.310     2.733    0.34E-03    0.55E-03    0.92E-07
  PAW_PBE Zr_sv 04Jan2005               :
 energy of atom  1       EATOM=-1284.2219
 kinetic energy error for atom=    0.0049 (will be added to EATOM!!)
  PAW_PBE O 08Apr2002                   :
 energy of atom  2       EATOM= -432.3788
 kinetic energy error for atom=    0.0224 (will be added to EATOM!!)
  PAW_PBE H 15Jun2001                   :
 energy of atom  3       EATOM=  -12.4884
 kinetic energy error for atom=    0.0020 (will be added to EATOM!!)
  PAW_PBE C 08Apr2002                   :
 energy of atom  4       EATOM= -147.1560
 kinetic energy error for atom=    0.0076 (will be added to EATOM!!)
 
 
 POSCAR: POSCAR-1                                
  positions in direct lattice
  velocities in cartesian coordinates
  No initial velocities read in
 exchange correlation table for  LEXCH =        8
   RHO(1)=    0.500       N(1)  =     2000
   RHO(2)=  100.500       N(2)  =     4000
 


--------------------------------------------------------------------------------------------------------


 ion  position               nearest neighbor table
   1  0.088  0.321  0.038-  78 2.10  62 2.10  50 2.18  74 2.19  61 2.26  54 2.30  16 3.37   6 3.50
                            12 3.52  13 3.65
   2  0.338  0.821  0.038-  79 2.10  63 2.10  51 2.18  75 2.19  58 2.26  55 2.30  13 3.37   7 3.50
                             9 3.52  14 3.65
   3  0.588  0.321  0.038-  80 2.10  64 2.10  52 2.18  76 2.19  59 2.26  56 2.30  14 3.37   8 3.50
                            10 3.52  15 3.65
   4  0.838  0.821  0.038-  81 2.10  65 2.10  53 2.18  77 2.19  60 2.26  57 2.30  15 3.37   5 3.50
                            11 3.52  16 3.65
   5  0.070  0.834  0.049-  82 2.07  66 2.10  65 2.18  58 2.19  57 2.22  70 2.30  12 3.37  17 3.46
                             4 3.50  16 3.52   9 3.65
   6  0.320  0.334  0.049-  83 2.06  67 2.10  62 2.18  59 2.19  54 2.22  71 2.30   9 3.37  18 3.47
                             1 3.50  13 3.52  10 3.65
   7  0.570  0.834  0.049-  84 2.06  68 2.10  63 2.18  60 2.19  55 2.22  72 2.30  10 3.37  19 3.49
                             2 3.50  14 3.52  11 3.65
   8  0.820  0.334  0.049-  85 2.07  69 2.10  64 2.18  61 2.19  56 2.22  73 2.30  11 3.37   3 3.50
                            20 3.51  15 3.52  12 3.65
   9  0.238  0.068  0.057-  62 2.10  86 2.16  67 2.18  70 2.19  75 2.22  58 2.30   6 3.37  17 3.49
                            14 3.50  22 3.51   2 3.52   5 3.65
  10  0.488  0.568  0.057-  63 2.10  87 2.17  68 2.18  71 2.19  76 2.22  59 2.30   7 3.37  18 3.48
                            15 3.50   3 3.52  23 3.52   6 3.65
  11  0.738  0.068  0.057-  64 2.10  69 2.18  88 2.18  72 2.19  77 2.22  60 2.30   8 3.37  19 3.47
                            16 3.50   4 3.52  24 3.52   7 3.65
  12  0.988  0.568  0.057-  65 2.10  66 2.18  89 2.18  73 2.19  74 2.22  61 2.30   5 3.37  13 3.50
                            20 3.52   1 3.52  21 3.53   8 3.65
  13  0.220  0.581  0.068-  51 2.10  66 2.10  79 2.18  54 2.19  90 2.26  71 2.26  74 2.30   2 3.37
                            21 3.49  26 3.50  12 3.50  18 3.50   6 3.52   1 3.65
  14  0.470  0.081  0.068-  52 2.10  67 2.10  80 2.18  55 2.19  72 2.26  91 2.27  75 2.30   3 3.37
                            27 3.48  22 3.49   9 3.50  19 3.52   7 3.52   2 3.65
  15  0.720  0.581  0.068-  53 2.10  68 2.10  81 2.18  56 2.19  73 2.26  92 2.26  76 2.30   4 3.37
                            23 3.50  28 3.50  10 3.50   8 3.52  20 3.53   3 3.65
  16  0.970  0.081  0.068-  50 2.10  69 2.10  78 2.18  57 2.19  70 2.26  93 2.26  77 2.30   1 3.37
                            17 3.50  11 3.50  25 3.50  24 3.50   5 3.52   4 3.65
  17  0.105  0.982  0.171-  94 2.09 110 2.13  82 2.16  70 2.19 106 2.19  93 2.23  86 2.31  32 3.40
                             5 3.46   9 3.49  16 3.50  22 3.52  25 3.54  29 3.67
  18  0.356  0.484  0.171-  95 2.09 111 2.13  83 2.16  71 2.19 107 2.19  90 2.23  87 2.29  29 3.38
                             6 3.47  10 3.48  13 3.50  23 3.52  26 3.54  30 3.65
  19  0.608  0.984  0.171-  96 2.09 112 2.14  84 2.18  72 2.20 108 2.20  91 2.23  88 2.28  30 3.39
                            11 3.47  24 3.49   7 3.49  27 3.52  14 3.52  31 3.69
  20  0.856  0.484  0.173-  97 2.10 113 2.10 109 2.19  85 2.19  73 2.23  92 2.23  89 2.31  31 3.34
                            28 3.49   8 3.51  12 3.52  21 3.52  15 3.53  32 3.63
  21  0.089  0.495  0.182- 114 2.09  98 2.11  97 2.17  90 2.18  74 2.24  89 2.27 102 2.29  25 3.37
                            13 3.49  32 3.51  20 3.52  12 3.53  26 3.62  33 3.65
  22  0.339  0.995  0.182- 115 2.10  99 2.11  94 2.17  91 2.19  75 2.23 103 2.25  86 2.27  26 3.38
                            14 3.49  29 3.51   9 3.51  17 3.52  34 3.60  27 3.62
  23  0.589  0.493  0.182- 100 2.08 116 2.12  95 2.17  92 2.18  76 2.23  87 2.29 104 2.30  27 3.36
                            35 3.49  15 3.50  18 3.52  10 3.52  30 3.56  28 3.69
  24  0.838  0.995  0.183- 101 2.10 117 2.10  96 2.18  93 2.18  77 2.25  88 2.26 105 2.29  28 3.37
                            19 3.49  16 3.50  11 3.52  31 3.54  36 3.60  25 3.65
  25  0.005  0.230  0.191-  78 2.10  97 2.10 121 2.16  98 2.19 105 2.22  93 2.30 106 2.30  21 3.37
                            37 3.44  16 3.50  17 3.54  29 3.55  24 3.65  36 3.66
  26  0.253  0.730  0.191-  94 2.10  79 2.10 102 2.18  99 2.20 118 2.20  90 2.29 107 2.29  22 3.38
                            38 3.46  13 3.50  18 3.54  30 3.54  21 3.62  33 3.65
  27  0.504  0.229  0.191-  80 2.09  95 2.11 119 2.17 100 2.19 103 2.20  91 2.29 108 2.29  23 3.36
                            39 3.48  14 3.48  19 3.52  31 3.58  22 3.62  34 3.66
  28  0.758  0.729  0.191-  81 2.09  96 2.12 101 2.16 120 2.23 109 2.23 104 2.23  92 2.30  24 3.37
                            32 3.48  20 3.49  35 3.50  15 3.50  40 3.60  23 3.69
  29  0.239  0.242  0.201-  98 2.10  83 2.10 122 2.19 103 2.21 111 2.22  86 2.23 106 2.29  18 3.38
                            37 3.41  42 3.51  22 3.51  25 3.55  34 3.62  17 3.67
  30  0.488  0.743  0.200-  99 2.08  84 2.09 112 2.19 123 2.21  87 2.22 104 2.25 107 2.30  19 3.39
                            38 3.45  35 3.49  43 3.49  26 3.54  23 3.56  18 3.65
  31  0.741  0.245  0.204- 100 2.11  85 2.11 113 2.12 105 2.22 124 2.26  88 2.28 108 2.31  20 3.34
                            39 3.48  44 3.54  24 3.54  27 3.58  36 3.63  19 3.69
  32  0.988  0.740  0.203- 101 2.11  82 2.14 110 2.19 102 2.21 125 2.22  89 2.23 109 2.25  17 3.40
                            41 3.46  28 3.48  21 3.51  40 3.55  33 3.62  20 3.63
  33  0.123  0.642  0.314- 142 2.02 126 2.16 138 2.17 114 2.21 125 2.24 118 2.37 102 2.41  45 3.22
                            41 3.47  38 3.54  32 3.62  21 3.65  26 3.65  46 3.70
  34  0.370  0.140  0.312- 143 2.03 127 2.13 139 2.18 115 2.20 122 2.24 119 2.37 103 2.42  46 3.23
                            42 3.49  39 3.52  22 3.60  29 3.62  47 3.65  27 3.66
  35  0.621  0.647  0.304- 140 2.16 123 2.18 116 2.19 104 2.20 128 2.20 144 2.22 120 2.24  49 3.20
                            43 3.43  47 3.44  30 3.49  23 3.49  28 3.50  40 3.58  48 3.71
  36  0.874  0.138  0.313- 145 2.02 129 2.11 141 2.14 117 2.22 124 2.33 105 2.36 121 2.46  48 3.23
                            44 3.39  37 3.55  24 3.60  31 3.63  25 3.66  45 3.78
  37  0.109  0.161  0.312- 130 2.09 121 2.13 106 2.16 122 2.16 129 2.17 134 2.18  29 3.41  25 3.44
                            41 3.45  45 3.49  36 3.55  42 3.59
  38  0.358  0.659  0.313- 131 2.10 126 2.15 107 2.16 135 2.16 118 2.16 123 2.17  42 3.44  30 3.45
                            26 3.46  46 3.53  33 3.54  43 3.58
  39  0.604  0.158  0.315- 136 2.07 132 2.11 127 2.15 108 2.18 124 2.19 119 2.22  43 3.43  47 3.44
                            27 3.48  31 3.48  34 3.52  44 3.76
  40  0.858  0.664  0.322- 146 2.10 133 2.14 125 2.20 137 2.20 120 2.21 128 2.31 109 2.37  49 3.39
                            48 3.45  44 3.49  32 3.55  41 3.58  35 3.58  28 3.60
  41  0.026  0.889  0.324- 110 2.05 138 2.15 137 2.16 129 2.16 130 2.20 125 2.29  37 3.45  32 3.46
                            33 3.47  46 3.50  40 3.58
  42  0.275  0.389  0.325- 111 2.06 139 2.13 126 2.14 131 2.25 134 2.26 122 2.29  38 3.44  47 3.48
                            34 3.49  29 3.51  37 3.59
  43  0.524  0.887  0.325- 112 2.06 127 2.14 140 2.15 132 2.17 135 2.27 123 2.29  35 3.43  39 3.43
                            30 3.49  48 3.55  38 3.58
  44  0.788  0.383  0.331- 147 2.09 141 2.10 133 2.11 113 2.19 124 2.23 128 2.23  49 3.19  36 3.39
                            45 3.39  40 3.49  31 3.54  39 3.76
  45  0.014  0.407  0.336- 142 2.02 114 2.06 133 2.17 141 2.23 134 2.27 121 2.30  33 3.22  44 3.39
                            37 3.49  36 3.78
  46  0.258  0.907  0.336- 143 2.02 115 2.07 130 2.15 138 2.26 118 2.29 135 2.31  34 3.23  41 3.50
                            38 3.53  33 3.70
  47  0.505  0.399  0.335- 116 2.08 136 2.09 131 2.18 119 2.22 139 2.23 144 2.25  35 3.44  39 3.44
                            42 3.48  34 3.65
  48  0.759  0.907  0.336- 145 2.01 117 2.06 132 2.18 137 2.22 120 2.32 140 2.36  36 3.23  40 3.45
                            43 3.55  35 3.71
  49  0.706  0.551  0.414- 147 1.92 146 1.98 144 2.11 128 2.20 165 2.67  44 3.19  35 3.20  40 3.39

  50  0.024  0.173  0.000-  16 2.10   1 2.18
  51  0.274  0.673  0.000-  13 2.10   2 2.18
  52  0.524  0.173  0.000-  14 2.10   3 2.18
  53  0.774  0.673  0.000-  15 2.10   4 2.18
  54  0.215  0.432  0.016-  13 2.19   6 2.22   1 2.30
  55  0.465  0.932  0.016-  14 2.19   7 2.22   2 2.30
  56  0.715  0.432  0.016-  15 2.19   8 2.22   3 2.30
  57  0.965  0.932  0.016-  16 2.19   5 2.22   4 2.30
  58  0.207  0.891  0.025-   5 2.19   2 2.26   9 2.30
  59  0.457  0.391  0.025-   6 2.19   3 2.26  10 2.30
  60  0.707  0.891  0.025-   7 2.19   4 2.26  11 2.30
  61  0.957  0.391  0.025-   8 2.19   1 2.26  12 2.30
  62  0.197  0.226  0.044-   9 2.10   1 2.10   6 2.18
  63  0.447  0.726  0.044-  10 2.10   2 2.10   7 2.18
  64  0.697  0.226  0.044-  11 2.10   3 2.10   8 2.18
  65  0.947  0.726  0.044-  12 2.10   4 2.10   5 2.18
  66  0.111  0.675  0.062-   5 2.10  13 2.10  12 2.18
  67  0.361  0.175  0.062-   6 2.10  14 2.10   9 2.18
  68  0.611  0.675  0.062-   7 2.10  15 2.10  10 2.18
  69  0.861  0.175  0.062-   8 2.10  16 2.10  11 2.18
  70  0.101  0.010  0.081-  17 2.19   9 2.19  16 2.26   5 2.30
  71  0.351  0.510  0.081-  18 2.19  10 2.19  13 2.26   6 2.30
  72  0.601  0.010  0.081-  11 2.19  19 2.20  14 2.26   7 2.30
  73  0.851  0.510  0.081-  12 2.19  20 2.23  15 2.26   8 2.30
  74  0.093  0.470  0.090-   1 2.19  12 2.22  21 2.24  13 2.30
  75  0.343  0.970  0.090-   2 2.19   9 2.22  22 2.23  14 2.30
  76  0.593  0.470  0.090-   3 2.19  10 2.22  23 2.23  15 2.30
  77  0.843  0.970  0.090-   4 2.19  11 2.22  24 2.25  16 2.30
  78  0.034  0.229  0.106-  25 2.10   1 2.10  16 2.18
  79  0.284  0.729  0.106-   2 2.10  26 2.10  13 2.18
  80  0.534  0.229  0.106-  27 2.09   3 2.10  14 2.18
  81  0.784  0.729  0.106-  28 2.09   4 2.10  15 2.18
  82  0.045  0.833  0.134-   5 2.07  32 2.14  17 2.16
  83  0.296  0.334  0.133-   6 2.06  29 2.10  18 2.16
  84  0.546  0.834  0.133-   7 2.06  30 2.09  19 2.18
  85  0.796  0.333  0.134-   8 2.07  31 2.11  20 2.19
  86  0.231  0.093  0.146-   9 2.16  29 2.23  22 2.27  17 2.31
  87  0.481  0.594  0.147-  10 2.17  30 2.22  23 2.29  18 2.29
  88  0.732  0.094  0.147-  11 2.18  24 2.26  19 2.28  31 2.28
  89  0.982  0.593  0.147-  12 2.18  32 2.23  21 2.27  20 2.31
  90  0.225  0.552  0.160-  21 2.18  18 2.23  13 2.26  26 2.29
  91  0.476  0.051  0.161-  22 2.19  19 2.23  14 2.27  27 2.29
  92  0.725  0.552  0.161-  23 2.18  20 2.23  15 2.26  28 2.30
  93  0.975  0.053  0.161-  24 2.18  17 2.23  16 2.26  25 2.30
  94  0.215  0.890  0.181-  17 2.09  26 2.10  22 2.17
  95  0.464  0.389  0.180-  18 2.09  27 2.11  23 2.17
  96  0.715  0.889  0.181-  19 2.09  28 2.12  24 2.18
  97  0.966  0.391  0.182-  20 2.10  25 2.10  21 2.17
  98  0.130  0.335  0.192-  29 2.10  21 2.11  25 2.19
  99  0.379  0.835  0.193-  30 2.08  22 2.11  26 2.20
 100  0.628  0.335  0.194-  23 2.08  31 2.11  27 2.19
 101  0.879  0.837  0.194-  24 2.10  32 2.11  28 2.16
 102  0.117  0.672  0.215-  26 2.18  32 2.21  21 2.29  33 2.41
 103  0.367  0.169  0.213-  27 2.20  29 2.21  22 2.25  34 2.42
 104  0.618  0.671  0.214-  35 2.20  28 2.23  30 2.25  23 2.30
 105  0.867  0.170  0.217-  31 2.22  25 2.22  24 2.29  36 2.36
 106  0.115  0.130  0.224-  37 2.16  17 2.19  29 2.29  25 2.30
 107  0.364  0.631  0.224-  38 2.16  18 2.19  26 2.29  30 2.30
 108  0.615  0.131  0.225-  39 2.18  19 2.20  27 2.29  31 2.31
 109  0.864  0.632  0.225-  20 2.19  28 2.23  32 2.25  40 2.37
 110  0.047  0.894  0.240-  41 2.05  17 2.13  32 2.19
 111  0.298  0.396  0.241-  42 2.06  18 2.13  29 2.22
 112  0.547  0.893  0.240-  43 2.06  19 2.14  30 2.19
 113  0.798  0.393  0.240-  20 2.10  31 2.12  44 2.19
 114  0.071  0.492  0.269-  45 2.06  21 2.09  33 2.21
 115  0.313  0.992  0.268-  46 2.07  22 2.10  34 2.20
 116  0.560  0.493  0.269-  47 2.08  23 2.12  35 2.19
 117  0.809  0.993  0.268-  48 2.06  24 2.10  36 2.22
 118  0.251  0.750  0.283-  38 2.16  26 2.20  46 2.29  33 2.37
 119  0.497  0.251  0.280-  27 2.17  39 2.22  47 2.22  34 2.37
 120  0.749  0.747  0.284-  40 2.21  28 2.23  35 2.24  48 2.32
 121  0.006  0.252  0.281-  37 2.13  25 2.16  45 2.30  36 2.46
 122  0.245  0.214  0.291-  37 2.16  29 2.19  34 2.24  42 2.29
 123  0.494  0.712  0.290-  38 2.17  35 2.18  30 2.21  43 2.29
 124  0.742  0.219  0.297-  39 2.19  44 2.23  31 2.26  36 2.33
 125  0.994  0.712  0.294-  40 2.20  32 2.22  33 2.24  41 2.29
 126  0.239  0.555  0.329-  42 2.14  38 2.15  33 2.16
 127  0.484  0.051  0.325-  34 2.13  43 2.14  39 2.15
 128  0.730  0.544  0.324-  35 2.20  49 2.20  44 2.23  40 2.31
 129  0.989  0.056  0.329-  36 2.11  41 2.16  37 2.17
 130  0.146  0.004  0.331-  37 2.09  46 2.15  41 2.20
 131  0.397  0.505  0.337-  38 2.10  47 2.18  42 2.25
 132  0.642  0.000  0.335-  39 2.11  43 2.17  48 2.18
 133  0.899  0.501  0.327-  44 2.11  40 2.14  45 2.17
 134  0.138  0.320  0.352-  37 2.18  42 2.26  45 2.27
 135  0.385  0.819  0.351-  38 2.16  43 2.27  46 2.31
 136  0.606  0.302  0.361-  39 2.07  47 2.09
 137  0.889  0.838  0.344-  41 2.16  40 2.20  48 2.22
 138  0.132  0.800  0.356-  41 2.15  33 2.17  46 2.26
 139  0.379  0.298  0.355-  42 2.13  34 2.18  47 2.23
 140  0.627  0.793  0.355-  43 2.15  35 2.16  48 2.36
 141  0.894  0.293  0.355-  44 2.10  36 2.14  45 2.23
 142  0.067  0.544  0.375-  45 2.02  33 2.02
 143  0.315  0.043  0.374-  46 2.02  34 2.03
 144  0.579  0.544  0.378-  49 2.11  35 2.22  47 2.25
 145  0.814  0.044  0.374-  48 2.01  36 2.02
 146  0.804  0.667  0.403-  49 1.98  40 2.10
 147  0.759  0.414  0.415-  49 1.92  44 2.09
 148  0.768  0.011  0.473- 162 1.10
 149  0.827  0.822  0.462- 161 1.10
 150  0.954  0.995  0.524- 160 1.10
 151  0.845  0.819  0.534- 161 1.10
 152  0.913  0.115  0.495- 160 1.10
 153  0.928  0.002  0.452- 160 1.10
 154  0.663  0.820  0.476- 163 1.10
 155  0.789  0.005  0.546- 162 1.10
 156  0.679  0.839  0.548- 163 1.11
 157  0.754  0.649  0.545- 164 1.10
 158  0.569  0.633  0.488- 165 1.09
 159  0.624  0.522  0.525- 165 1.10
 160  0.907  0.025  0.494- 152 1.10 153 1.10 150 1.10 162 1.53
 161  0.802  0.852  0.502- 149 1.10 151 1.10 162 1.53 163 1.54
 162  0.812  0.977  0.504- 148 1.10 155 1.10 160 1.53 161 1.53
 163  0.707  0.801  0.511- 154 1.10 156 1.11 164 1.50 161 1.54
 164  0.698  0.679  0.522- 157 1.10 165 1.35 163 1.50
 165  0.628  0.607  0.509- 158 1.09 159 1.10 164 1.35  49 2.67
 
  Warning from LATTYP: Monoclinic adjustement (A1->A3, A2->A1, A3->A2)!
  Warning from LATTYP: Got some problem with cell dimensions!
  Tried to take original basis but could not verify dimensions!
  LATTYP: Found a simple monoclinic cell.
 ALAT       =    18.5584556648
 B/A-ratio  =     1.2917238965
 C/A-ratio  =     1.7011970181
 COS(beta)  =    -0.9496615564
  
  Lattice vectors:
  
 A1 = ( -14.0305058395, -12.1474763861,   0.0000000000)
 A2 = (   0.0000000000,   0.0000000000, -23.9724006653)
 A3 = (  29.1411063110,  12.1474763861,   0.0000000000)


Analysis of symmetry for initial positions (statically):
=====================================================================
 Subroutine PRICEL returns:
 Original cell was already a primitive cell.
 

 Routine SETGRP: Setting up the symmetry group for a 
 simple monoclinic supercell.


 Subroutine GETGRP returns: Found  1 space group operations
 (whereof  1 operations were pure point group operations)
 out of a pool of  4 trial point group operations.


The static configuration has the point symmetry C_1 .


Analysis of symmetry for dynamics (positions and initial velocities):
=====================================================================
 Subroutine PRICEL returns:
 Original cell was already a primitive cell.
 

 Routine SETGRP: Setting up the symmetry group for a 
 simple monoclinic supercell.


 Subroutine GETGRP returns: Found  1 space group operations
 (whereof  1 operations were pure point group operations)
 out of a pool of  4 trial point group operations.


The dynamic configuration has the point symmetry C_1 .


Analysis of constrained symmetry for selective dynamics:
=====================================================================
 Subroutine PRICEL returns:
 Original cell was already a primitive cell.
 

 Routine SETGRP: Setting up the symmetry group for a 
 simple monoclinic supercell.


 Subroutine GETGRP returns: Found  1 space group operations
 (whereof  1 operations were pure point group operations)
 out of a pool of  4 trial point group operations.


The constrained configuration has the point symmetry C_1 .


Analysis of structural, dynamic, and magnetic symmetry:
=====================================================================
 Subroutine PRICEL returns:
 Original cell was already a primitive cell.
 

 Routine SETGRP: Setting up the symmetry group for a 
 simple monoclinic supercell.


 Subroutine GETGRP returns: Found  1 space group operations
 (whereof  1 operations were pure point group operations)
 out of a pool of  4 trial point group operations.


The magnetic configuration has the point symmetry C_1 .


 Subroutine INISYM returns: Found  1 space group operations
 (whereof  1 operations are pure point group operations),
 and found     1 'primitive' translations

 
 
 KPOINTS: Monkhorst Pack                          

Automatic generation of k-mesh.
Space group operators:
 irot       det(A)        alpha          n_x          n_y          n_z        tau_x        tau_y        tau_z
    1     1.000000     0.000001     1.000000     0.000000     0.000000     0.000000     0.000000     0.000000
 
 Subroutine IBZKPT returns following result:
 ===========================================
 
 Found      2 irreducible k-points:
 
 Following reciprocal coordinates:
            Coordinates               Weight
  0.250000  0.250000  0.000000      2.000000
 -0.250000  0.250000  0.000000      2.000000
 
 Following cartesian coordinates:
            Coordinates               Weight
  0.016545  0.022051  0.000000      2.000000
 -0.016545  0.019109  0.000000      2.000000
 


--------------------------------------------------------------------------------------------------------




 Dimension of arrays:
   k-points           NKPTS =      2   k-points in BZ     NKDIM =      2   number of bands    NBANDS=    640
   number of dos      NEDOS =    301   number of ions     NIONS =    165
   non local maximal  LDIM  =      6   non local SUM 2l+1 LMDIM =     18
   total plane-waves  NPLWV = 823200
   max r-space proj   IRMAX =   2561   max aug-charges    IRDMAX=   7978
   dimension x,y,z NGX =    84 NGY =   70 NGZ =  140
   dimension x,y,z NGXF=   168 NGYF=  140 NGZF=  280
   support grid    NGXF=   168 NGYF=  140 NGZF=  280
   ions per type =              49  98  12   6
   NGX,Y,Z   is equivalent  to a cutoff of   9.24,  9.54,  9.71 a.u.
   NGXF,Y,Z  is equivalent  to a cutoff of  18.48, 19.08, 19.42 a.u.

 SYSTEM =  mZrO2_n111                              
 POSCAR =  POSCAR-1                                

 Startparameter for this run:
   NWRITE =      2    write-flag & timer
   PREC   = normal    normal or accurate (medium, high low for compatibility)
   ISTART =      1    job   : 0-new  1-cont  2-samecut
   ICHARG =      1    charge: 1-file 2-atom 10-const
   ISPIN  =      2    spin polarized calculation?
   LNONCOLLINEAR =      F non collinear calculations
   LSORBIT =      F    spin-orbit coupling
   INIWAV =      1    electr: 0-lowe 1-rand  2-diag
   LASPH  =      F    aspherical Exc in radial PAW
   METAGGA=      F    non-selfconsistent MetaGGA calc.

 Electronic Relaxation 1
   ENCUT  =  500.0 eV  36.75 Ry    6.06 a.u.  27.55 22.24 43.71*2*pi/ulx,y,z
   ENINI  =  500.0     initial cutoff
   ENAUG  =  644.9 eV  augmentation charge cutoff
   NELM   =    300;   NELMIN=  2; NELMDL=  0     # of ELM steps 
   EDIFF  = 0.1E-05   stopping-criterion for ELM
   LREAL  =      T    real-space projection
   NLSPLINE    = F    spline interpolate recip. space projectors
   LCOMPAT=      F    compatible to vasp.4.4
   GGA_COMPAT  = T    GGA compatible to vasp.4.4-vasp.4.6
   LMAXPAW     = -100 max onsite density
   LMAXMIX     =    2 max onsite mixed and CHGCAR
   VOSKOWN=      0    Vosko Wilk Nusair interpolation
   ROPT   =   -0.00050  -0.00050  -0.00050  -0.00050
 Ionic relaxation
   EDIFFG = -.2E-01   stopping-criterion for IOM
   NSW    =      0    number of steps for IOM
   NBLOCK =      1;   KBLOCK =      1    inner block; outer block 
   IBRION =     -1    ionic relax: 0-MD 1-quasi-New 2-CG
   NFREE  =      1    steps in history (QN), initial steepest desc. (CG)
   ISIF   =      2    stress and relaxation
   IWAVPR =     10    prediction:  0-non 1-charg 2-wave 3-comb
   ISYM   =      2    0-nonsym 1-usesym 2-fastsym
   LCORR  =      T    Harris-Foulkes like correction to forces

   POTIM  = 0.5000    time-step for ionic-motion
   TEIN   =    0.0    initial temperature
   TEBEG  =    0.0;   TEEND  =   0.0 temperature during run
   SMASS  =  -3.00    Nose mass-parameter (am)
   estimated Nose-frequenzy (Omega)   =  0.10E-29 period in steps =****** mass=  -0.522E-26a.u.
   SCALEE = 1.0000    scale energy and forces
   NPACO  =    256;   APACO  = 16.0  distance and # of slots for P.C.
   PSTRESS=    0.0 pullay stress

  Mass of Ions in am
   POMASS =  91.22 16.00  1.00 12.01
  Ionic Valenz
   ZVAL   =  12.00  6.00  1.00  4.00
  Atomic Wigner-Seitz radii
   RWIGS  =  -1.00 -1.00 -1.00 -1.00
  virtual crystal weights 
   VCA    =   1.00  1.00  1.00  1.00
   NELECT =    1212.0000    total number of electrons
   NUPDOWN=      -1.0000    fix difference up-down

 DOS related values:
   EMIN   =  10.00;   EMAX   =-10.00  energy-range for DOS
   EFERMI =   0.00
   ISMEAR =     0;   SIGMA  =   0.05  broadening in eV -4-tet -1-fermi 0-gaus

 Electronic relaxation 2 (details)
   IALGO  =     38    algorithm
   LDIAG  =      T    sub-space diagonalisation (order eigenvalues)
   LSUBROT=      F    optimize rotation matrix (better conditioning)
   TURBO    =      0    0=normal 1=particle mesh
   IRESTART =      0    0=no restart 2=restart with 2 vectors
   NREBOOT  =      0    no. of reboots
   NMIN     =      0    reboot dimension
   EREF     =   0.00    reference energy to select bands
   IMIX   =      4    mixing-type and parameters
     AMIX     =   0.40;   BMIX     =  1.00
     AMIX_MAG =   1.60;   BMIX_MAG =  1.00
     AMIN     =   0.10
     WC   =   100.;   INIMIX=   1;  MIXPRE=   1;  MAXMIX= -45

 Intra band minimization:
   WEIMIN = 0.0000     energy-eigenvalue tresh-hold
   EBREAK =  0.39E-09  absolut break condition
   DEPER  =   0.30     relativ break condition  

   TIME   =   0.40     timestep for ELM

  volume/ion in A,a.u.               =      26.67       179.97
  Fermi-wavevector in a.u.,A,eV,Ry     =   1.065163  2.012866 15.436782  1.134571
  Thomas-Fermi vector in A             =   2.200705
 
 Write flags
   LWAVE        =      F    write WAVECAR
   LDOWNSAMPLE  =      F    k-point downsampling of WAVECAR
   LCHARG       =      F    write CHGCAR
   LVTOT        =      F    write LOCPOT, total local potential
   LVHAR        =      F    write LOCPOT, Hartree potential only
   LELF         =      F    write electronic localiz. function (ELF)
   LORBIT       =      0    0 simple, 1 ext, 2 COOP (PROOUT), +10 PAW based schemes


 Dipole corrections
   LMONO  =      F    monopole corrections only (constant potential shift)
   LDIPOL =      F    correct potential (dipole corrections)
   IDIPOL =      3    1-x, 2-y, 3-z, 4-all directions 
   EPSILON=  1.0000000 bulk dielectric constant

 LDA+U is selected, type is set to LDAUTYPE =  2
   angular momentum for each species LDAUL =     2   -1   -1   -1
   U (eV)           for each species LDAUU =   4.0  0.0  0.0  0.0
   J (eV)           for each species LDAUJ =   0.0  0.0  0.0  0.0
 Exchange correlation treatment:
   GGA     =    --    GGA type
   LEXCH   =     8    internal setting for exchange type
   VOSKOWN=      0    Vosko Wilk Nusair interpolation
   LHFCALC =     F    Hartree Fock is set to
   LHFONE  =     F    Hartree Fock one center treatment
   AEXX    =    0.0000 exact exchange contribution

 Linear response parameters
   LEPSILON=     F    determine dielectric tensor
   LRPA    =     F    only Hartree local field effects (RPA)
   LNABLA  =     F    use nabla operator in PAW spheres
   LVEL    =     F    velocity operator in full k-point grid
   LINTERFAST=   F  fast interpolation
   KINTER  =     0    interpolate to denser k-point grid
   CSHIFT  =0.1000    complex shift for real part using Kramers Kronig
   OMEGAMAX=  -1.0    maximum frequency
   DEG_THRESHOLD= 0.2000000E-02 threshold for treating states as degnerate
   RTIME   =   -0.100 relaxation time in fs
  (WPLASMAI=    0.000 imaginary part of plasma frequency in eV, 0.658/RTIME)
   DFIELD  = 0.0000000 0.0000000 0.0000000 field for delta impulse in time
 
 Orbital magnetization related:
   ORBITALMAG=     F  switch on orbital magnetization
   LCHIMAG   =     F  perturbation theory with respect to B field
   DQ        =  0.001000  dq finite difference perturbation B field
   LLRAUG    =     F  two centre corrections for induced B field



--------------------------------------------------------------------------------------------------------


 Static calculation
 charge density and potential will be updated during run
 spin polarized calculation
 Variant of blocked Davidson
 Davidson routine will perform the subspace rotation
 perform sub-space diagonalisation
    after iterative eigenvector-optimisation
 modified Broyden-mixing scheme, WC =      100.0
 initial mixing is a Kerker type mixing with AMIX =  0.4000 and BMIX =      1.0000
 Hartree-type preconditioning will be used
 using additional bands           34
 real space projection scheme for non local part
 use partial core corrections
 calculate Harris-corrections to forces 
   (improved forces if not selfconsistent)
 use gradient corrections 
 use of overlap-Matrix (Vanderbilt PP)
 Gauss-broadening in eV      SIGMA  =   0.05


--------------------------------------------------------------------------------------------------------


  energy-cutoff  :      500.00
  volume of cell :     4400.27
      direct lattice vectors                 reciprocal lattice vectors
    15.110600471  0.000000000  0.000000000     0.066178707  0.005884289  0.000000000
    -1.080094632 12.147476386  0.000000000     0.000000000  0.082321625  0.000000000
     0.000000000  0.000000000 23.972400665     0.000000000  0.000000000  0.041714637

  length of vectors
    15.110600471 12.195400238 23.972400665     0.066439793  0.082321625  0.041714637


 
 old parameters found on file WAVECAR:
  energy-cutoff  :      500.00
  volume of cell :     4400.27
      direct lattice vectors                 reciprocal lattice vectors
    15.110600471  0.000000000  0.000000000     0.066178707  0.005884289  0.000000000
    -1.080094632 12.147476386  0.000000000     0.000000000  0.082321625  0.000000000
     0.000000000  0.000000000 23.972400665     0.000000000  0.000000000  0.041714637

  length of vectors

 
 k-points in units of 2pi/SCALE and weight: Monkhorst Pack                          
   0.01654468  0.02205148  0.00000000       0.500
  -0.01654468  0.01910933  0.00000000       0.500
 
 k-points in reciprocal lattice and weights: Monkhorst Pack                          
   0.25000000  0.25000000  0.00000000       0.500
  -0.25000000  0.25000000  0.00000000       0.500
 
 position of ions in fractional coordinates (direct lattice) 
   0.08848000  0.32082999  0.03824000
   0.33847998  0.82083000  0.03824000
   0.58847999  0.32082999  0.03824000
   0.83848001  0.82083000  0.03824000
   0.07020001  0.83354995  0.04873000
   0.32019998  0.33355000  0.04873000
   0.57020004  0.83354995  0.04873000
   0.82020001  0.33355000  0.04873000
   0.23783000  0.06778000  0.05703000
   0.48783004  0.56778001  0.05703000
   0.73783001  0.06778000  0.05703000
   0.98782997  0.56778001  0.05703000
   0.21954999  0.58051001  0.06752000
   0.46955000  0.08051000  0.06752000
   0.71954999  0.58051001  0.06752000
   0.96955000  0.08051000  0.06752000
   0.10548349  0.98236478  0.17091319
   0.35629133  0.48362326  0.17109675
   0.60775520  0.98436535  0.17142349
   0.85591637  0.48355467  0.17286736
   0.08932286  0.49483300  0.18246433
   0.33873847  0.99488391  0.18208299
   0.58878210  0.49251201  0.18220287
   0.83837531  0.99515986  0.18264763
   0.00455126  0.23041033  0.19131501
   0.25278823  0.72982854  0.19134979
   0.50389810  0.22851926  0.19085589
   0.75773672  0.72926436  0.19128552
   0.23938985  0.24176147  0.20051888
   0.48766150  0.74296784  0.19958278
   0.74052352  0.24502321  0.20353950
   0.98790413  0.74000825  0.20279896
   0.12273580  0.64223865  0.31412018
   0.37035842  0.13964108  0.31248256
   0.62143872  0.64720566  0.30433240
   0.87361966  0.13807881  0.31346331
   0.10926236  0.16077838  0.31216711
   0.35770257  0.65945903  0.31279240
   0.60411832  0.15810851  0.31472132
   0.85755717  0.66376767  0.32209627
   0.02610769  0.88909061  0.32448260
   0.27481939  0.38883037  0.32540406
   0.52354456  0.88703324  0.32455914
   0.78837328  0.38340167  0.33117289
   0.01373268  0.40707603  0.33574449
   0.25796444  0.90682294  0.33600838
   0.50547255  0.39880421  0.33479370
   0.75854177  0.90673954  0.33646890
   0.70580732  0.55100463  0.41445546
   0.02440000  0.17254999  0.00000000
   0.27439999  0.67255002  0.00000000
   0.52439999  0.17254999  0.00000000
   0.77439999  0.67255002  0.00000000
   0.21455000  0.43156997  0.01581000
   0.46455001  0.93156996  0.01581000
   0.71455008  0.43156997  0.01581000
   0.96455004  0.93156996  0.01581000
   0.20673000  0.89092997  0.02490000
   0.45673000  0.39092998  0.02490000
   0.70672997  0.89092997  0.02490000
   0.95673004  0.39092998  0.02490000
   0.19748000  0.22610000  0.04418000
   0.44748002  0.72610003  0.04418000
   0.69748003  0.22610000  0.04418000
   0.94747999  0.72610003  0.04418000
   0.11054000  0.67523994  0.06158000
   0.36054002  0.17523999  0.06158000
   0.61053998  0.67523994  0.06158000
   0.86053999  0.17523999  0.06158000
   0.10129000  0.01041000  0.08086000
   0.35129000  0.51041000  0.08086000
   0.60128998  0.01041000  0.08086000
   0.85128994  0.51041000  0.08086000
   0.09348000  0.46976000  0.08995000
   0.34348000  0.96975995  0.08995000
   0.59348001  0.46976000  0.08995000
   0.84347996  0.96975995  0.08995000
   0.03362000  0.22878000  0.10576000
   0.28361999  0.72877998  0.10576000
   0.53361997  0.22878000  0.10576000
   0.78362002  0.72877998  0.10576000
   0.04483727  0.83269000  0.13366562
   0.29616637  0.33395569  0.13341706
   0.54606476  0.83401712  0.13334803
   0.79551621  0.33268145  0.13384500
   0.23137332  0.09322855  0.14607880
   0.48138053  0.59356143  0.14664330
   0.73169017  0.09373499  0.14692484
   0.98188352  0.59346823  0.14683199
   0.22548441  0.55244217  0.16044281
   0.47610651  0.05075533  0.16066047
   0.72485577  0.55174501  0.16069719
   0.97481343  0.05261807  0.16073460
   0.21464803  0.88996707  0.18081135
   0.46441626  0.38924392  0.18014624
   0.71486047  0.88868867  0.18088741
   0.96557809  0.39053828  0.18172423
   0.13017788  0.33500095  0.19198049
   0.37858159  0.83493266  0.19344952
   0.62830564  0.33517558  0.19443203
   0.87927060  0.83660600  0.19413057
   0.11716876  0.67152344  0.21479323
   0.36690172  0.16919876  0.21276819
   0.61792994  0.67055190  0.21357737
   0.86738573  0.17002823  0.21653438
   0.11541099  0.12990596  0.22368379
   0.36359484  0.63057916  0.22421102
   0.61492881  0.13111566  0.22518978
   0.86415223  0.63200039  0.22467821
   0.04678571  0.89351518  0.23993946
   0.29767703  0.39567686  0.24074048
   0.54746806  0.89303494  0.23998483
   0.79805156  0.39299054  0.24027173
   0.07110339  0.49249098  0.26876112
   0.31340215  0.99229443  0.26808984
   0.55987077  0.49309942  0.26872982
   0.80933054  0.99332348  0.26832466
   0.25071239  0.75028219  0.28265069
   0.49684198  0.25072536  0.28033186
   0.74887070  0.74704981  0.28360885
   0.00624609  0.25190737  0.28064607
   0.24496456  0.21430580  0.29073120
   0.49379011  0.71237902  0.29010520
   0.74210472  0.21858370  0.29682742
   0.99423359  0.71215311  0.29404985
   0.23880156  0.55458346  0.32900715
   0.48419596  0.05114755  0.32521799
   0.72979057  0.54431539  0.32394912
   0.98866312  0.05618719  0.32851868
   0.14623709  0.00377696  0.33063976
   0.39735904  0.50528874  0.33660057
   0.64175189  0.00007407  0.33496189
   0.89949230  0.50122320  0.32743804
   0.13780337  0.32028321  0.35208611
   0.38538770  0.81889353  0.35135179
   0.60553835  0.30202826  0.36082493
   0.88945163  0.83810356  0.34434731
   0.13202811  0.80018356  0.35643946
   0.37938822  0.29828991  0.35514365
   0.62721446  0.79342426  0.35522564
   0.89388300  0.29314641  0.35508019
   0.06736804  0.54394858  0.37501542
   0.31548087  0.04289110  0.37437634
   0.57884812  0.54434899  0.37759304
   0.81354100  0.04366979  0.37429322
   0.80419090  0.66696462  0.40311746
   0.75934856  0.41358276  0.41481848
   0.76829259  0.01114988  0.47306324
   0.82717221  0.82245151  0.46198492
   0.95354712  0.99480574  0.52425392
   0.84527192  0.81926318  0.53429971
   0.91301157  0.11528891  0.49522333
   0.92799019  0.00169730  0.45153959
   0.66286732  0.81962069  0.47606484
   0.78919895  0.00479673  0.54562852
   0.67906081  0.83870439  0.54834034
   0.75400689  0.64857614  0.54516331
   0.56945831  0.63280832  0.48816897
   0.62435027  0.52212206  0.52505121
   0.90720407  0.02490311  0.49355161
   0.80228707  0.85159911  0.50208682
   0.81167713  0.97749818  0.50448999
   0.70665217  0.80057166  0.51093059
   0.69846808  0.67938005  0.52216781
   0.62831969  0.60680451  0.50930614
 
 position of ions in cartesian coordinates  (Angst):
   0.99045921  3.89727473  0.91670460
   4.22806168  9.97101307  0.91670460
   8.54575920  3.89727473  0.91670460
  11.78336239  9.97101307  0.91670460
   0.16045142 10.12552833  1.16817511
   4.47814847  4.05179071  1.16817511
   7.71575212 10.12552833  1.16817511
  12.03344917  4.05179071  1.16817511
   3.52054525  0.82335597  1.36714601
   6.75814868  6.89709425  1.36714601
  11.07584571  0.82335597  1.36714601
  14.31344795  6.89709425  1.36714601
   2.69052649  7.05173159  1.61861647
   7.00822400  0.97799331  1.61861647
  10.24582672  7.05173159  1.61861647
  14.56352424  0.97799331  1.61861647
   0.53287190 11.93325291  4.09719958
   4.86141707  5.87480208  4.10159988
   8.12033823 11.95755483  4.10943247
  12.41112545  5.87396888  4.14404553
   0.81525559  6.01097223  4.37410794
   4.04397286 12.08532882  4.36496628
   8.36489153  5.98277795  4.36784030
  11.59348753 12.08868086  4.37850226
  -0.18009274  2.79890406  4.58628005
   3.03149813  8.86557491  4.58711379
   7.36738038  2.77593232  4.57527379
  10.66218236  8.85872154  4.58557305
   3.35619914  2.93679171  4.80691890
   6.56638258  9.02518435  4.78447831
  10.92510686  2.97641367  4.87933048
  14.12854566  8.98923270  4.86157797
   1.16093310  7.80157879  7.53021480
   5.44551248  1.69628674  7.49095712
   8.69126891  7.86191548  7.29557820
  13.05177946  1.67730912  7.51446801
   1.47736402  1.95305158  7.48339500
   4.69282239  8.01076304  7.49838484
   8.95781848  1.92061940  7.54462546
  12.24127191  8.06310204  7.72142072
  -0.56579917 10.80020723  7.77862682
   3.73271243  4.72330778  7.80071638
   6.95299289 10.77521531  7.78046169
  11.49868363  4.65736276  7.93900916
  -0.23217152  4.94494642  8.04860136
   2.91854294 11.01561021  8.05492762
   7.20724753  4.84446466  8.02580874
  10.48265714 11.01459715  8.06596721
  10.07003535  6.69331578  9.93549242
   0.18232835  2.09604693  0.00000000
   3.41993094  8.16978550  0.00000000
   7.73762846  2.09604693  0.00000000
  10.97523117  8.16978550  0.00000000
   2.77584291  5.24248600  0.37900365
   6.01344586 11.31622410  0.37900365
  10.33114434  5.24248600  0.37900365
  13.56874656 11.31622410  0.37900365
   2.16152573 10.82255077  0.59691280
   6.47922326  4.74881268  0.59691280
   9.71682548 10.82255077  0.59691280
  14.03452396  4.74881268  0.59691280
   2.73983193  2.74654436  1.05910064
   5.97743511  8.82028293  1.05910064
  10.29513263  2.74654436  1.05910064
  13.53273487  8.82028293  1.05910064
   0.94100273  8.20246124  1.47622036
   5.25870037  2.12872362  1.47622036
   8.49630260  8.20246124  1.47622036
  12.81400013  2.12872362  1.47622036
   1.51930892  0.12645522  1.93840825
   4.75691175  6.20019341  1.93840825
   9.07460880  0.12645522  1.93840825
  12.31221104  6.20019341  1.93840825
   0.90515363  5.70639848  2.15631746
   4.14275646 11.78013610  2.15631746
   8.46045399  5.70639848  2.15631746
  11.69805622 11.78013610  2.15631746
   0.26091433  2.77909971  2.53532100
   3.49851704  8.85283756  2.53532100
   7.81621408  2.77909971  2.53532100
  11.05381775  8.85283756  2.53532100
  -0.22186598 10.11508213  3.20428584
   4.11454800  4.05671882  3.19832719
   7.35054902 10.13120331  3.19667243
  11.66140020  4.04124009  3.20858595
   3.39549408  1.13249158  3.50185957
   6.63284628  7.21027347  3.51539194
  10.95503514  1.13864355  3.52214104
  14.19584771  7.20914131  3.51991523
   2.81051495  6.71077825  3.84619929
   7.13943468  0.61654918  3.85141725
  10.35706918  6.70230952  3.85229745
  14.67318386  0.63917676  3.85319430
   2.28221197 10.81085393  4.33448222
   6.59718823  4.72833135  4.31853773
   9.84210303 10.79532463  4.33630540
  14.16864640  4.74405456  4.35636612
   1.60523314  4.06941611  4.60223315
   4.81878884 10.14232477  4.63744945
   9.13205416  4.07153749  4.66100245
  12.38269309 10.16265158  4.65377579
   1.04518153  8.15731508  5.14910946
   5.36135460  2.05533800  5.10056435
   8.61303290  8.14551341  5.11996234
  12.92307265  2.06541388  5.19084902
   1.60361869  1.57802959  5.36223746
   4.81305112  7.65994540  5.37487633
   9.15032622  1.59272438  5.39833952
  12.37523889  7.67720976  5.38607600
  -0.25812079 10.85395454  5.75192475
   4.07071021  4.80647532  5.77112733
   7.30800889 10.84812079  5.75301242
  11.63457128  4.77384328  5.75989015
   0.54247800  5.98252255  6.44284913
   3.66392281 12.05387312  6.42675701
   7.92738945  5.98991356  6.44209894
  11.15658710 12.06637352  6.43238633
   2.97803892  9.11403522  6.77581565
   7.23677361  3.04568041  6.72022763
  10.50900144  9.07476995  6.79878510
  -0.17770164  3.06003882  6.72776008
   3.47009106  2.60327463  6.96952476
   6.69202827  8.65360733  6.95451809
  10.97755678  2.65524030  7.11566573
  14.25427377  8.65086308  7.04908088
   3.00943242  6.73678946  7.88709121
   7.26124746  0.62131364  7.79625606
  10.43966163  6.61205832  7.76583813
  14.87860589  0.68253256  7.87538136
   2.20565083  0.04588053  7.92622870
   5.45857404  6.13798300  8.06912383
   9.69717646  0.00089974  8.02984067
  13.05050034  6.08859700  7.84947599
   1.73635553  3.89063270  8.44034939
   4.93895707  9.94748979  8.42274577
   8.82382897  3.66888121  8.64983987
  12.53491713 10.18084324  8.25483179
   1.13075007  9.72021085  8.54470954
   5.41060245  3.62346961  8.51364598
   8.62061387  9.63810250  8.51561131
  13.19048295  3.56098904  8.51212452
   0.43045555  6.60760253  8.99001980
   4.72077891  0.52101868  8.97469951
   8.15879425  6.61246654  9.05181176
  12.24592556  0.53047777  8.97270704
  11.43142256  8.10193693  9.66369319
  11.02750416  5.02398683  9.94419472
  11.59731947  0.13544296 11.34046147
  11.61074329  9.99071026 11.07488769
  13.33418528 12.08437925 12.56762505
  11.88768445  9.95198015 12.80844683
  13.67163007  1.40046936 11.87169203
  14.02065580  0.02061794 10.82448794
   9.13105530  9.95632303 11.41241712
  11.92008911  0.05826815 13.08002560
   9.35513648 10.18814175 13.14503421
  10.69297324  7.87856333 13.06887341
   7.92136410  7.68702408 11.70258219
   8.87036628  6.34246541 12.58673798
  13.68150050  0.30250995 11.83161705
  11.20323180 10.34478009 12.03622633
  11.20913827 11.87413602 12.09383610
   9.81324549  9.72492538 12.24823279
   9.82047731  8.25275309 12.51761595
   8.83888153  7.37114343 12.20929090
 


--------------------------------------------------------------------------------------------------------


 k-point  1 :   0.2500 0.2500 0.0000  plane waves:  111683
 k-point  2 :  -0.2500 0.2500 0.0000  plane waves:  111725

 maximum and minimum number of plane-waves per node :     18644    18587

 maximum number of plane-waves:    111725
 maximum index in each direction: 
   IXMAX=   27   IYMAX=   21   IZMAX=   43
   IXMIN=  -27   IYMIN=  -22   IZMIN=  -43


 real space projection operators:
  total allocation   :      22355.83 KBytes
  max/ min on nodes  :       3737.02       3716.22


 parallel 3D FFT for wavefunctions:
    minimum data exchange during FFTs selected (reduces bandwidth)
 parallel 3D FFT for charge:
    minimum data exchange during FFTs selected (reduces bandwidth)


 total amount of memory used by VASP MPI-rank0   174993. kBytes
=======================================================================

   base      :      30000. kBytes
   nonlr-proj:      11705. kBytes
   fftplans  :       9317. kBytes
   grid      :      26149. kBytes
   one-center:        870. kBytes
   wavefun   :      96952. kBytes
 
     INWAV:  cpu time    8.3076: real time    8.4069
 Broyden mixing: mesh for mixing (old mesh)
   NGX = 55   NGY = 45   NGZ = 87
  (NGX  =168   NGY  =140   NGZ  =280)
  gives a total of 215325 points

 initial charge density was supplied:
 number of electron    1212.0000056 magnetization       0.0000000
 keeping initial charge density in first step


--------------------------------------------------------------------------------------------------------


 Maximum index for non-local projection operator          435
 Maximum index for augmentation-charges          481 (set IRDMAX)


--------------------------------------------------------------------------------------------------------


 First call to EWALD:  gamma=   0.108
 Maximum number of real-space cells 3x 4x 2
 Maximum number of reciprocal cells 3x 2x 4

    FEWALD:  cpu time    0.0053: real time    0.0054


--------------------------------------- Iteration      1(   1)  ---------------------------------------


    POTLOK:  cpu time    0.2274: real time    0.2290
    SETDIJ:  cpu time    0.0224: real time    0.0227
     EDDAV:  cpu time   27.8743: real time   27.9889
       DOS:  cpu time    0.0009: real time    0.0009
    CHARGE:  cpu time    1.2333: real time    1.2379
    MIXING:  cpu time    0.0065: real time    0.0065
    --------------------------------------------
      LOOP:  cpu time   29.3648: real time   29.4858

 eigenvalue-minimisations  :  6304
 total energy-change (2. order) :-0.1371022E+04  (-0.1339894E+00)
 number of electron    1212.0000056 magnetization      -0.0000000
 augmentation part       73.9444079 magnetization      -0.0000000

 Broyden mixing:
  rms(total) = 0.95284E-01    rms(broyden)= 0.95204E-01
  rms(prec ) = 0.96489E-01
  weight for this iteration     100.00

 Free energy of the ion-electron system (eV)
  ---------------------------------------------------
  alpha Z        PSCENC =      2161.47602710
  Ewald energy   TEWEN  =    386648.48223298
  -Hartree energ DENC   =   -483859.71113686
  -exchange      EXHF   =         0.00000000
  -V(xc)+E(xc)   XCENC  =      5331.66106964
  PAW double counting   =    130570.91560444  -129892.49912015
  entropy T*S    EENTRO =        -0.00000000
  eigenvalues    EBANDS =    -18661.64056780
  atomic energy  EATOM  =    106330.29339555
  Solvation  Ediel_sol  =         0.00000000
  ---------------------------------------------------
  free energy    TOTEN  =     -1371.02249510 eV

  energy without entropy =    -1371.02249510  energy(sigma->0) =    -1371.02249510


--------------------------------------------------------------------------------------------------------




--------------------------------------- Iteration      1(   2)  ---------------------------------------


    POTLOK:  cpu time    0.2135: real time    0.2151
    SETDIJ:  cpu time    0.0217: real time    0.0218
     EDDAV:  cpu time   27.6108: real time   27.7213
       DOS:  cpu time    0.0006: real time    0.0006
    CHARGE:  cpu time    1.2180: real time    1.2221
    MIXING:  cpu time    0.0063: real time    0.0063
    --------------------------------------------
      LOOP:  cpu time   29.0709: real time   29.1871

 eigenvalue-minimisations  :  6144
 total energy-change (2. order) :-0.1745660E+01  (-0.1192097E+00)
 number of electron    1212.0000056 magnetization      -0.0000000
 augmentation part       73.8659229 magnetization      -0.0000000

 Broyden mixing:
  rms(total) = 0.41085E-01    rms(broyden)= 0.40968E-01
  rms(prec ) = 0.43206E-01
  weight for this iteration     100.00

 eigenvalues of (default mixing * dielectric matrix)
  average eigenvalue GAMMA=   0.7359
  0.7359

 Free energy of the ion-electron system (eV)
  ---------------------------------------------------
  alpha Z        PSCENC =      2161.47602710
  Ewald energy   TEWEN  =    386648.48223298
  -Hartree energ DENC   =   -483861.54337618
  -exchange      EXHF   =         0.00000000
  -V(xc)+E(xc)   XCENC  =      5331.75880541
  PAW double counting   =    130426.65202736  -129747.19260799
  entropy T*S    EENTRO =        -0.00000000
  eigenvalues    EBANDS =    -18662.69465951
  atomic energy  EATOM  =    106330.29339555
  Solvation  Ediel_sol  =         0.00000000
  ---------------------------------------------------
  free energy    TOTEN  =     -1372.76815528 eV

  energy without entropy =    -1372.76815528  energy(sigma->0) =    -1372.76815528


--------------------------------------------------------------------------------------------------------




--------------------------------------- Iteration      1(   3)  ---------------------------------------


    POTLOK:  cpu time    0.2126: real time    0.2142
    SETDIJ:  cpu time    0.0217: real time    0.0217
     EDDAV:  cpu time   30.0034: real time   30.1188
       DOS:  cpu time    0.0008: real time    0.0008
    CHARGE:  cpu time    1.2271: real time    1.2314
    MIXING:  cpu time    0.0062: real time    0.0062
    --------------------------------------------
      LOOP:  cpu time   31.4719: real time   31.5933

 eigenvalue-minimisations  :  6848
 total energy-change (2. order) :-0.9839962E-02  (-0.4379827E-02)
 number of electron    1212.0000056 magnetization       0.0000000
 augmentation part       73.8991844 magnetization      -0.0000000

 Broyden mixing:
  rms(total) = 0.27742E-01    rms(broyden)= 0.27724E-01
  rms(prec ) = 0.28146E-01
  weight for this iteration     100.00

 eigenvalues of (default mixing * dielectric matrix)
  average eigenvalue GAMMA=   0.6916
  0.6916  0.6916

 Free energy of the ion-electron system (eV)
  ---------------------------------------------------
  alpha Z        PSCENC =      2161.47602710
  Ewald energy   TEWEN  =    386648.48223298
  -Hartree energ DENC   =   -483859.01179423
  -exchange      EXHF   =         0.00000000
  -V(xc)+E(xc)   XCENC  =      5331.56105820
  PAW double counting   =    130453.92322210  -129773.71023071
  entropy T*S    EENTRO =        -0.00000000
  eigenvalues    EBANDS =    -18665.79190623
  atomic energy  EATOM  =    106330.29339555
  Solvation  Ediel_sol  =         0.00000000
  ---------------------------------------------------
  free energy    TOTEN  =     -1372.77799524 eV

  energy without entropy =    -1372.77799524  energy(sigma->0) =    -1372.77799524


--------------------------------------------------------------------------------------------------------




--------------------------------------- Iteration      1(   4)  ---------------------------------------


    POTLOK:  cpu time    0.2147: real time    0.2164
    SETDIJ:  cpu time    0.0216: real time    0.0216
     EDDAV:  cpu time   25.4753: real time   25.5784
       DOS:  cpu time    0.0006: real time    0.0006
    CHARGE:  cpu time    1.2282: real time    1.2326
    MIXING:  cpu time    0.0065: real time    0.0065
    --------------------------------------------
      LOOP:  cpu time   26.9468: real time   27.0561

 eigenvalue-minimisations  :  5568
 total energy-change (2. order) :-0.5259861E-04  (-0.2160014E-03)
 number of electron    1212.0000056 magnetization       0.0000000
 augmentation part       73.8949637 magnetization      -0.0000000

 Broyden mixing:
  rms(total) = 0.22418E-01    rms(broyden)= 0.22417E-01
  rms(prec ) = 0.22714E-01
  weight for this iteration     100.00

 eigenvalues of (default mixing * dielectric matrix)
  average eigenvalue GAMMA=   0.6844
  0.7703  0.7703  0.5125

 Free energy of the ion-electron system (eV)
  ---------------------------------------------------
  alpha Z        PSCENC =      2161.47602710
  Ewald energy   TEWEN  =    386648.48223298
  -Hartree energ DENC   =   -483859.70112031
  -exchange      EXHF   =         0.00000000
  -V(xc)+E(xc)   XCENC  =      5331.62947199
  PAW double counting   =    130483.29957443  -129803.03839087
  entropy T*S    EENTRO =        -0.00000000
  eigenvalues    EBANDS =    -18665.21923870
  atomic energy  EATOM  =    106330.29339555
  Solvation  Ediel_sol  =         0.00000000
  ---------------------------------------------------
  free energy    TOTEN  =     -1372.77804784 eV

  energy without entropy =    -1372.77804784  energy(sigma->0) =    -1372.77804784


--------------------------------------------------------------------------------------------------------




--------------------------------------- Iteration      1(   5)  ---------------------------------------


    POTLOK:  cpu time    0.2124: real time    0.2140
    SETDIJ:  cpu time    0.0217: real time    0.0217
     EDDAV:  cpu time   29.0362: real time   29.1526
       DOS:  cpu time    0.0006: real time    0.0006
    CHARGE:  cpu time    1.2048: real time    1.2106
    MIXING:  cpu time    0.0067: real time    0.0067
    --------------------------------------------
      LOOP:  cpu time   30.4832: real time   30.6062

 eigenvalue-minimisations  :  6592
 total energy-change (2. order) :-0.8714705E-05  (-0.1979377E-04)
 number of electron    1212.0000056 magnetization       0.0000000
 augmentation part       73.9007642 magnetization      -0.0000000

 Broyden mixing:
  rms(total) = 0.18882E-01    rms(broyden)= 0.18882E-01
  rms(prec ) = 0.19132E-01
  weight for this iteration     100.00

 eigenvalues of (default mixing * dielectric matrix)
  average eigenvalue GAMMA=   0.7230
  0.9022  0.9022  0.5439  0.5439

 Free energy of the ion-electron system (eV)
  ---------------------------------------------------
  alpha Z        PSCENC =      2161.47602710
  Ewald energy   TEWEN  =    386648.48223298
  -Hartree energ DENC   =   -483859.73949537
  -exchange      EXHF   =         0.00000000
  -V(xc)+E(xc)   XCENC  =      5331.63357344
  PAW double counting   =    130501.17021213  -129820.87255741
  entropy T*S    EENTRO =        -0.00000000
  eigenvalues    EBANDS =    -18665.22144496
  atomic energy  EATOM  =    106330.29339555
  Solvation  Ediel_sol  =         0.00000000
  ---------------------------------------------------
  free energy    TOTEN  =     -1372.77805655 eV

  energy without entropy =    -1372.77805655  energy(sigma->0) =    -1372.77805655


--------------------------------------------------------------------------------------------------------




--------------------------------------- Iteration      1(   6)  ---------------------------------------


    POTLOK:  cpu time    0.2119: real time    0.2125
    SETDIJ:  cpu time    0.0215: real time    0.0216
     EDDAV:  cpu time   29.1212: real time   29.2666
       DOS:  cpu time    0.0006: real time    0.0006
    CHARGE:  cpu time    1.2158: real time    1.2199
    MIXING:  cpu time    0.0072: real time    0.0072
    --------------------------------------------
      LOOP:  cpu time   30.5773: real time   30.7284

 eigenvalue-minimisations  :  6592
 total energy-change (2. order) :-0.1196571E-04  (-0.2245324E-05)
 number of electron    1212.0000056 magnetization       0.0000000
 augmentation part       73.9021596 magnetization       0.0000000

 Broyden mixing:
  rms(total) = 0.16344E-01    rms(broyden)= 0.16344E-01
  rms(prec ) = 0.16573E-01
  weight for this iteration     100.00

 eigenvalues of (default mixing * dielectric matrix)
  average eigenvalue GAMMA=   0.8038
  1.1386  1.1386  0.5250  0.6083  0.6083

 Free energy of the ion-electron system (eV)
  ---------------------------------------------------
  alpha Z        PSCENC =      2161.47602710
  Ewald energy   TEWEN  =    386648.48223298
  -Hartree energ DENC   =   -483859.83418905
  -exchange      EXHF   =         0.00000000
  -V(xc)+E(xc)   XCENC  =      5331.64145243
  PAW double counting   =    130515.46111149  -129835.15151644
  entropy T*S    EENTRO =        -0.00000000
  eigenvalues    EBANDS =    -18665.14658257
  atomic energy  EATOM  =    106330.29339555
  Solvation  Ediel_sol  =         0.00000000
  ---------------------------------------------------
  free energy    TOTEN  =     -1372.77806852 eV

  energy without entropy =    -1372.77806852  energy(sigma->0) =    -1372.77806852


--------------------------------------------------------------------------------------------------------




--------------------------------------- Iteration      1(   7)  ---------------------------------------


    POTLOK:  cpu time    0.2109: real time    0.2136
    SETDIJ:  cpu time    0.0214: real time    0.0215
     EDDAV:  cpu time   29.2413: real time   29.3549
       DOS:  cpu time    0.0007: real time    0.0007
    CHARGE:  cpu time    1.2407: real time    1.2450
    MIXING:  cpu time    0.0076: real time    0.0076
    --------------------------------------------
      LOOP:  cpu time   30.7227: real time   30.8433

 eigenvalue-minimisations  :  6656
 total energy-change (2. order) :-0.7181137E-05  (-0.2505685E-05)
 number of electron    1212.0000056 magnetization       0.0000000
 augmentation part       73.9034759 magnetization       0.0000000

 Broyden mixing:
  rms(total) = 0.12883E-01    rms(broyden)= 0.12883E-01
  rms(prec ) = 0.13061E-01
  weight for this iteration     100.00

 eigenvalues of (default mixing * dielectric matrix)
  average eigenvalue GAMMA=   0.8613
  1.3476  1.3476  0.6858  0.6858  0.5505  0.5505

 Free energy of the ion-electron system (eV)
  ---------------------------------------------------
  alpha Z        PSCENC =      2161.47602710
  Ewald energy   TEWEN  =    386648.48223298
  -Hartree energ DENC   =   -483859.85724640
  -exchange      EXHF   =         0.00000000
  -V(xc)+E(xc)   XCENC  =      5331.64715262
  PAW double counting   =    130533.91099077  -129853.58755496
  entropy T*S    EENTRO =        -0.00000000
  eigenvalues    EBANDS =    -18665.14307335
  atomic energy  EATOM  =    106330.29339555
  Solvation  Ediel_sol  =         0.00000000
  ---------------------------------------------------
  free energy    TOTEN  =     -1372.77807570 eV

  energy without entropy =    -1372.77807570  energy(sigma->0) =    -1372.77807570


--------------------------------------------------------------------------------------------------------




--------------------------------------- Iteration      1(   8)  ---------------------------------------


    POTLOK:  cpu time    0.2176: real time    0.2191
    SETDIJ:  cpu time    0.0218: real time    0.0218
     EDDAV:  cpu time   27.5109: real time   27.6224
       DOS:  cpu time    0.0006: real time    0.0006
    CHARGE:  cpu time    1.2394: real time    1.2438
    MIXING:  cpu time    0.0080: real time    0.0081
    --------------------------------------------
      LOOP:  cpu time   28.9983: real time   29.1158

 eigenvalue-minimisations  :  6176
 total energy-change (2. order) :-0.5048016E-05  (-0.1725319E-05)
 number of electron    1212.0000056 magnetization       0.0000000
 augmentation part       73.9052416 magnetization       0.0000000

 Broyden mixing:
  rms(total) = 0.10569E-01    rms(broyden)= 0.10569E-01
  rms(prec ) = 0.10708E-01
  weight for this iteration     100.00

 eigenvalues of (default mixing * dielectric matrix)
  average eigenvalue GAMMA=   0.9144
  1.5801  1.5801  0.7685  0.7685  0.5326  0.5856  0.5856

 Free energy of the ion-electron system (eV)
  ---------------------------------------------------
  alpha Z        PSCENC =      2161.47602710
  Ewald energy   TEWEN  =    386648.48223298
  -Hartree energ DENC   =   -483859.87326236
  -exchange      EXHF   =         0.00000000
  -V(xc)+E(xc)   XCENC  =      5331.65032558
  PAW double counting   =    130546.43411741  -129866.10045679
  entropy T*S    EENTRO =        -0.00000000
  eigenvalues    EBANDS =    -18665.14046021
  atomic energy  EATOM  =    106330.29339555
  Solvation  Ediel_sol  =         0.00000000
  ---------------------------------------------------
  free energy    TOTEN  =     -1372.77808075 eV

  energy without entropy =    -1372.77808075  energy(sigma->0) =    -1372.77808075


--------------------------------------------------------------------------------------------------------




--------------------------------------- Iteration      1(   9)  ---------------------------------------


    POTLOK:  cpu time    0.2116: real time    0.2141
    SETDIJ:  cpu time    0.0217: real time    0.0217
     EDDAV:  cpu time   19.8362: real time   19.9140
       DOS:  cpu time    0.0007: real time    0.0007
    CHARGE:  cpu time    1.2440: real time    1.2499
    MIXING:  cpu time    0.0082: real time    0.0082
    --------------------------------------------
      LOOP:  cpu time   21.3224: real time   21.4086

 eigenvalue-minimisations  :  3968
 total energy-change (2. order) :-0.3934270E-05  (-0.3880616E-06)
 number of electron    1212.0000056 magnetization       0.0000000
 augmentation part       73.9060765 magnetization       0.0000000

 Broyden mixing:
  rms(total) = 0.91395E-02    rms(broyden)= 0.91395E-02
  rms(prec ) = 0.92625E-02
  weight for this iteration     100.00

 eigenvalues of (default mixing * dielectric matrix)
  average eigenvalue GAMMA=   1.0722
  2.1025  2.1025  0.9286  0.9286  0.6715  0.6715  0.5863  0.5863

 Free energy of the ion-electron system (eV)
  ---------------------------------------------------
  alpha Z        PSCENC =      2161.47602710
  Ewald energy   TEWEN  =    386648.48223298
  -Hartree energ DENC   =   -483859.87525738
  -exchange      EXHF   =         0.00000000
  -V(xc)+E(xc)   XCENC  =      5331.65138235
  PAW double counting   =    130554.23006309  -129873.89510906
  entropy T*S    EENTRO =        -0.00000000
  eigenvalues    EBANDS =    -18665.14081931
  atomic energy  EATOM  =    106330.29339555
  Solvation  Ediel_sol  =         0.00000000
  ---------------------------------------------------
  free energy    TOTEN  =     -1372.77808468 eV

  energy without entropy =    -1372.77808468  energy(sigma->0) =    -1372.77808468


--------------------------------------------------------------------------------------------------------




--------------------------------------- Iteration      1(  10)  ---------------------------------------


    POTLOK:  cpu time    0.2180: real time    0.2187
    SETDIJ:  cpu time    0.0216: real time    0.0217
     EDDAV:  cpu time   28.1765: real time   28.2853
       DOS:  cpu time    0.0010: real time    0.0006
    CHARGE:  cpu time    1.2404: real time    1.2459
    MIXING:  cpu time    0.0089: real time    0.0089
    --------------------------------------------
      LOOP:  cpu time   29.6664: real time   29.7811

 eigenvalue-minimisations  :  6368
 total energy-change (2. order) :-0.5892085E-05  (-0.2832178E-05)
 number of electron    1212.0000056 magnetization       0.0000000
 augmentation part       73.9073241 magnetization       0.0000000

 Broyden mixing:
  rms(total) = 0.51882E-02    rms(broyden)= 0.51881E-02
  rms(prec ) = 0.52613E-02
  weight for this iteration     100.00

 eigenvalues of (default mixing * dielectric matrix)
  average eigenvalue GAMMA=   1.1318
  2.4269  2.4269  1.0677  1.0677  0.6956  0.6956  0.5930  0.6066  0.6066

 Free energy of the ion-electron system (eV)
  ---------------------------------------------------
  alpha Z        PSCENC =      2161.47602710
  Ewald energy   TEWEN  =    386648.48223298
  -Hartree energ DENC   =   -483859.88204010
  -exchange      EXHF   =         0.00000000
  -V(xc)+E(xc)   XCENC  =      5331.65517456
  PAW double counting   =    130575.22471966  -129894.88102740
  entropy T*S    EENTRO =        -0.00000000
  eigenvalues    EBANDS =    -18665.14657292
  atomic energy  EATOM  =    106330.29339555
  Solvation  Ediel_sol  =         0.00000000
  ---------------------------------------------------
  free energy    TOTEN  =     -1372.77809057 eV

  energy without entropy =    -1372.77809057  energy(sigma->0) =    -1372.77809057


--------------------------------------------------------------------------------------------------------




[...]
   -.650E+02 0.150E+02 -.165E+04   0.664E+02 -.164E+02 0.166E+04   -.143E+01 0.138E+01 -.112E+02   -.736E-03 0.160E-03 -.120E-03
   0.407E+02 0.419E+02 -.164E+04   -.394E+02 -.443E+02 0.166E+04   -.135E+01 0.234E+01 -.115E+02   -.642E-03 0.121E-03 -.731E-03
   0.978E+02 -.553E+02 -.153E+04   -.951E+02 0.546E+02 0.154E+04   -.269E+01 0.677E+00 -.115E+02   -.253E-03 0.355E-03 -.680E-03
   -.104E+03 0.618E+02 -.157E+04   0.108E+03 -.640E+02 0.158E+04   -.326E+01 0.227E+01 -.118E+02   -.276E-03 0.171E-03 0.217E-03
   -.805E+02 -.378E+02 -.179E+04   0.802E+02 0.417E+02 0.181E+04   0.305E+00 -.387E+01 -.184E+02   -.357E-03 -.525E-03 -.127E-02
   0.936E+01 -.461E+02 -.181E+04   -.907E+01 0.501E+02 0.182E+04   -.304E+00 -.397E+01 -.182E+02   -.108E-03 -.285E-04 -.138E-02
   0.281E+03 0.153E+02 -.159E+04   -.291E+03 -.137E+02 0.159E+04   0.103E+02 -.154E+01 -.669E+01   0.538E-04 -.205E-03 -.669E-03
   0.685E+01 -.110E+03 -.166E+04   -.730E+01 0.115E+03 0.168E+04   0.440E+00 -.463E+01 -.180E+02   0.211E-03 -.190E-03 -.127E-02
   -.196E+03 -.132E+03 -.165E+04   0.204E+03 0.144E+03 0.166E+04   -.802E+01 -.121E+02 -.101E+02   0.409E-03 -.978E-03 -.732E-03
   -.101E+03 0.271E+03 -.176E+04   0.108E+03 -.286E+03 0.177E+04   -.699E+01 0.151E+02 -.125E+02   0.154E-03 0.865E-03 -.612E-03
   0.468E+02 -.431E+02 -.207E+03   -.502E+02 0.453E+02 0.204E+03   0.340E+01 -.217E+01 0.384E+01   -.508E-05 0.211E-04 -.224E-04
   -.422E+02 0.889E+01 -.204E+03   0.444E+02 -.108E+02 0.199E+03   -.215E+01 0.189E+01 0.484E+01   0.313E-04 -.781E-05 -.963E-05
   -.639E+02 0.371E+01 -.230E+03   0.676E+02 -.547E+01 0.234E+03   -.366E+01 0.177E+01 -.361E+01   -.193E-05 0.453E-05 -.128E-04
   -.582E+02 0.207E+02 -.234E+03   0.617E+02 -.226E+02 0.238E+03   -.345E+01 0.188E+01 -.372E+01   0.230E-05 -.221E-04 -.422E-05
   -.207E+02 -.679E+02 -.223E+03   0.206E+02 0.734E+02 0.223E+03   0.375E-01 -.551E+01 -.151E+00   -.104E-04 0.338E-04 -.335E-04
   -.483E+02 -.199E+01 -.207E+03   0.499E+02 0.657E+00 0.202E+03   -.163E+01 0.134E+01 0.511E+01   0.148E-05 0.183E-04 -.601E-04
   0.626E+02 -.299E+02 -.198E+03   -.660E+02 0.311E+02 0.194E+03   0.339E+01 -.122E+01 0.417E+01   0.217E-04 0.233E-04 0.486E-04
   0.233E+02 -.379E+02 -.232E+03   -.251E+02 0.396E+02 0.237E+03   0.181E+01 -.169E+01 -.480E+01   -.980E-05 0.121E-04 -.151E-04
   0.464E+02 -.338E+02 -.228E+03   -.486E+02 0.362E+02 0.232E+03   0.223E+01 -.231E+01 -.430E+01   0.111E-04 -.579E-05 -.295E-05
   -.502E+02 0.303E+02 -.225E+03   0.548E+02 -.322E+02 0.228E+03   -.459E+01 0.193E+01 -.291E+01   0.404E-05 -.249E-05 -.390E-05
   0.833E+02 -.932E+01 -.215E+03   -.881E+02 0.110E+02 0.212E+03   0.485E+01 -.164E+01 0.262E+01   0.196E-04 -.149E-05 0.656E-04
   0.229E+02 0.653E+02 -.230E+03   -.228E+02 -.706E+02 0.232E+03   -.776E-01 0.527E+01 -.207E+01   0.193E-04 0.189E-04 0.379E-04
   -.139E+03 -.894E+02 -.885E+03   0.139E+03 0.895E+02 0.884E+03   0.717E-01 -.799E-01 0.423E+00   -.168E-04 0.937E-04 -.131E-03
   -.796E+02 -.180E+01 -.874E+03   0.809E+02 0.299E+01 0.873E+03   -.139E+01 -.119E+01 0.100E+01   0.325E-04 -.383E-04 -.102E-04
   0.288E+02 -.109E+03 -.881E+03   -.289E+02 0.109E+03 0.880E+03   0.132E+00 -.651E+00 0.477E+00   -.643E-04 0.694E-04 -.697E-04
   0.104E+03 -.675E+02 -.861E+03   -.103E+03 0.699E+02 0.860E+03   -.125E+01 -.237E+01 0.114E+01   0.434E-04 -.353E-04 0.750E-04
   -.100E+02 0.254E+02 -.897E+03   0.103E+02 -.235E+02 0.898E+03   -.253E+00 -.192E+01 -.122E+01   0.847E-04 -.220E-04 0.132E-03
   0.169E+03 0.892E+02 -.899E+03   -.171E+03 -.892E+02 0.900E+03   0.187E+01 -.696E-01 -.805E+00   0.385E-04 0.487E-04 0.289E-03
 -----------------------------------------------------------------------------------------------
   0.297E+02 0.247E+02 0.840E+02   0.341E-12 -.213E-12 0.487E-10   -.298E+02 -.249E+02 -.842E+02   0.355E-02 0.192E-02 0.377E-01
 
 
 POSITION                                       TOTAL-FORCE (eV/Angst)
 -----------------------------------------------------------------------------------
      0.99046      3.89727      0.91670        -1.489643     -1.857206     -0.665965
      4.22806      9.97101      0.91670        -1.495844     -1.887339     -0.732441
      8.54576      3.89727      0.91670        -1.349404     -1.916215     -0.740701
     11.78336      9.97101      0.91670        -1.353203     -1.856047     -0.711061
      0.16045     10.12553      1.16818        -0.266652      1.648408      0.431945
      4.47815      4.05179      1.16818        -0.192209      1.721820      0.212737
      7.71575     10.12553      1.16818        -0.093099      1.770252      0.189029
     12.03345      4.05179      1.16818        -0.156128      1.802853      0.527530
      3.52055      0.82336      1.36715        -0.862120     -0.878146      1.561988
      6.75815      6.89709      1.36715        -0.824582     -0.896564      1.563402
     11.07585      0.82336      1.36715        -0.777328     -0.819824      1.722979
     14.31345      6.89709      1.36715        -0.935060     -0.937100      1.783397
      2.69053      7.05173      1.61862         1.468073      0.467584     -2.483751
      7.00822      0.97799      1.61862         1.602803      0.437276     -2.467483
     10.24583      7.05173      1.61862         1.716593      0.396466     -2.398656
     14.56352      0.97799      1.61862         1.516527      0.503770     -2.435251
      0.53287     11.93325      4.09720        -0.000425      0.000589     -0.000084
      4.86142      5.87480      4.10160         0.001070     -0.004386      0.000548
      8.12034     11.95755      4.10943         0.002891      0.002784     -0.005706
     12.41113      5.87397      4.14405         0.000143     -0.003339      0.000445
      0.81526      6.01097      4.37411        -0.000026      0.001900     -0.000538
      4.04397     12.08533      4.36497        -0.002852      0.000377      0.004605
      8.36489      5.98278      4.36784        -0.001194     -0.005101      0.002725
     11.59349     12.08868      4.37850         0.000209      0.001777     -0.001640
     -0.18009      2.79890      4.58628        -0.001568      0.001795      0.000715
      3.03150      8.86557      4.58711        -0.002183     -0.005802     -0.003252
      7.36738      2.77593      4.57527         0.000945      0.005121     -0.005042
     10.66218      8.85872      4.58557         0.000821     -0.000472     -0.002311
      3.35620      2.93679      4.80692        -0.002559      0.001329      0.000294
      6.56638      9.02518      4.78448        -0.003082     -0.000449     -0.003483
     10.92511      2.97641      4.87933         0.001220      0.000800     -0.000759
     14.12855      8.98923      4.86158        -0.000239     -0.002492      0.002348
      1.16093      7.80158      7.53021        -0.002549      0.002013      0.000721
      5.44551      1.69629      7.49096         0.003088     -0.001289      0.000933
      8.69127      7.86192      7.29558        -0.002026     -0.003567     -0.003603
     13.05178      1.67731      7.51447         0.001687      0.003293     -0.002364
      1.47736      1.95305      7.48339        -0.002007      0.000714      0.000023
      4.69282      8.01076      7.49838        -0.000573     -0.002254     -0.000666
      8.95782      1.92062      7.54463         0.001519     -0.002373      0.001060
     12.24127      8.06310      7.72142         0.006929     -0.002240     -0.004237
     -0.56580     10.80021      7.77863         0.003958     -0.004812      0.002695
      3.73271      4.72331      7.80072        -0.000866      0.002777     -0.002462
      6.95299     10.77522      7.78046        -0.001888     -0.003476      0.000955
     11.49868      4.65736      7.93901        -0.000161      0.001560     -0.001696
     -0.23217      4.94495      8.04860        -0.001145      0.000052      0.005914
      2.91854     11.01561      8.05493         0.000421      0.001098      0.002298
      7.20725      4.84446      8.02581         0.000954      0.002499     -0.000397
     10.48266     11.01460      8.06597         0.001432      0.002561     -0.000887
     10.07004      6.69332      9.93549         0.003076     -0.005582      0.001097
      0.18233      2.09605      0.00000         0.272010      0.969926      1.247562
      3.41993      8.16979      0.00000         0.292022      0.997553      1.248908
      7.73763      2.09605      0.00000         0.255856      0.975137      1.260453
     10.97523      8.16979      0.00000         0.244138      0.990194      1.257439
      2.77584      5.24249      0.37900        -0.002466     -0.930155      0.568201
      6.01345     11.31622      0.37900        -0.042042     -0.929401      0.571124
     10.33114      5.24249      0.37900        -0.108804     -0.920288      0.557099
     13.56875     11.31622      0.37900        -0.051720     -0.924907      0.554568
      2.16153     10.82255      0.59691         0.417141      1.206188     -0.199811
      6.47922      4.74881      0.59691         0.391887      1.219471     -0.205177
      9.71683     10.82255      0.59691         0.352836      1.184647     -0.209278
     14.03452      4.74881      0.59691         0.406202      1.176431     -0.226729
      2.73983      2.74654      1.05910         1.187952     -1.032067     -0.442573
      5.97744      8.82028      1.05910         1.162456     -1.051694     -0.418327
     10.29513      2.74654      1.05910         1.111833     -1.038644     -0.472964
     13.53273      8.82028      1.05910         1.132937     -1.015448     -0.480182
      0.94100      8.20246      1.47622        -1.094972     -0.300265     -0.915214
      5.25870      2.12872      1.47622        -1.118652     -0.309315     -0.896211
      8.49630      8.20246      1.47622        -1.193161     -0.312783     -0.901725
     12.81400      2.12872      1.47622        -1.140516     -0.336047     -0.916076
      1.51931      0.12646      1.93841         0.341695     -0.087623      0.209689
      4.75691      6.20019      1.93841         0.418332     -0.013356      0.209948
      9.07461      0.12646      1.93841         0.416894     -0.031378      0.254301
     12.31221      6.20019      1.93841         0.357476     -0.067118      0.316121
      0.90515      5.70640      2.15632        -0.354522      0.326401      0.084361
      4.14276     11.78014      2.15632        -0.352335      0.312082      0.132509
      8.46045      5.70640      2.15632        -0.425788      0.308996      0.183518
     11.69806     11.78014      2.15632        -0.410081      0.313346      0.162150
      0.26091      2.77910      2.53532         0.226491      0.397820      0.452132
      3.49852      8.85284      2.53532         0.237176      0.424879      0.602252
      7.81621      2.77910      2.53532         0.247330      0.390030      0.449125
     11.05382      8.85284      2.53532         0.262164      0.397139      0.539860
     -0.22187     10.11508      3.20429        -0.003022      0.004534     -0.005285
      4.11455      4.05672      3.19833        -0.001022      0.005249      0.000748
      7.35055     10.13120      3.19667        -0.006929     -0.012688      0.002569
     11.66140      4.04124      3.20859        -0.001427     -0.004053     -0.002706
      3.39549      1.13249      3.50186         0.003260      0.004943     -0.001836
      6.63285      7.21027      3.51539        -0.002947     -0.006111     -0.005793
     10.95504      1.13864      3.52214         0.004952      0.001405     -0.014747
     14.19585      7.20914      3.51992         0.006072      0.008337      0.001621
      2.81051      6.71078      3.84620         0.002816     -0.008413      0.003400
      7.13943      0.61655      3.85142         0.006578      0.001148      0.000487
     10.35707      6.70231      3.85230        -0.004127      0.005015      0.002130
     14.67318      0.63918      3.85319        -0.001514     -0.001082     -0.003184
      2.28221     10.81085      4.33448         0.000599      0.002073      0.007343
      6.59719      4.72833      4.31854        -0.002046      0.002294     -0.003564
      9.84210     10.79532      4.33631        -0.007793      0.007953      0.001965
     14.16865      4.74405      4.35637        -0.002221     -0.004443      0.002426
      1.60523      4.06942      4.60223        -0.002786      0.001234     -0.003779
      4.81879     10.14232      4.63745         0.007694     -0.005126      0.008948
      9.13205      4.07154      4.66100         0.000694     -0.003496      0.007504
     12.38269     10.16265      4.65378        -0.004638     -0.010397      0.002027
      1.04518      8.15732      5.14911         0.009097      0.004061      0.001213
      5.36135      2.05534      5.10056        -0.003967      0.001387      0.003529
      8.61303      8.14551      5.11996         0.003506     -0.005406     -0.000073
     12.92307      2.06541      5.19085         0.001545     -0.002250      0.000907
      1.60362      1.57803      5.36224         0.002016     -0.007539     -0.002143
      4.81305      7.65995      5.37488         0.001286      0.002343     -0.000636
      9.15033      1.59272      5.39834        -0.002855      0.000548     -0.002519
     12.37524      7.67721      5.38608         0.003505      0.007218     -0.000188
     -0.25812     10.85395      5.75192         0.001802      0.001186     -0.001122
      4.07071      4.80648      5.77113         0.002616      0.000342      0.004012
      7.30801     10.84812      5.75301        -0.000926      0.009349      0.002075
     11.63457      4.77384      5.75989        -0.000698      0.000512      0.003812
      0.54248      5.98252      6.44285         0.001059     -0.010415     -0.012147
      3.66392     12.05387      6.42676         0.008546      0.005456     -0.007192
      7.92739      5.98991      6.44210         0.007197      0.004808     -0.004465
     11.15659     12.06637      6.43239        -0.003366     -0.008732      0.006542
      2.97804      9.11404      6.77582        -0.002374      0.003951     -0.001966
      7.23677      3.04568      6.72023         0.000905     -0.000584      0.002396
     10.50900      9.07477      6.79879         0.010735      0.010531      0.008284
     -0.17770      3.06004      6.72776        -0.002782     -0.002371     -0.002963
      3.47009      2.60327      6.96952         0.006410      0.001769      0.000656
      6.69203      8.65361      6.95452        -0.000146     -0.005376     -0.002658
     10.97756      2.65524      7.11567        -0.005891     -0.003818      0.006603
     14.25427      8.65086      7.04908         0.004925     -0.005826     -0.001756
      3.00943      6.73679      7.88709        -0.001795      0.000457      0.000249
      7.26125      0.62131      7.79626         0.001616      0.007044     -0.004311
     10.43966      6.61206      7.76584        -0.002871      0.003122      0.002135
     14.87861      0.68253      7.87538        -0.009837     -0.003412     -0.004163
      2.20565      0.04588      7.92623         0.003350     -0.000550      0.002981
      5.45857      6.13798      8.06912         0.004702     -0.000474      0.005683
      9.69718      0.00090      8.02984         0.000960     -0.001056     -0.005609
     13.05050      6.08860      7.84948        -0.003823     -0.001237     -0.001393
      1.73636      3.89063      8.44035         0.002825      0.003610      0.001979
      4.93896      9.94749      8.42275        -0.003167     -0.004992     -0.000028
      8.82383      3.66888      8.64984        -0.001886      0.015134     -0.003824
     12.53492     10.18084      8.25483        -0.007534      0.007452     -0.000890
      1.13075      9.72021      8.54471         0.006363     -0.002294     -0.000293
      5.41060      3.62347      8.51365         0.001504      0.002032     -0.006299
      8.62061      9.63810      8.51561        -0.003756      0.005298      0.004368
     13.19048      3.56099      8.51212        -0.002261      0.000579      0.009823
      0.43046      6.60760      8.99002        -0.007181     -0.005171     -0.000933
      4.72078      0.52102      8.97470        -0.004315     -0.002462      0.002477
      8.15879      6.61247      9.05181         0.001449      0.005403      0.004852
     12.24593      0.53048      8.97271        -0.001671      0.002010     -0.001891
     11.43142      8.10194      9.66369        -0.005741     -0.008211     -0.001516
     11.02750      5.02399      9.94419         0.000399     -0.002588      0.001393
     11.59732      0.13544     11.34046         0.001198      0.000851      0.002245
     11.61074      9.99071     11.07489        -0.001551      0.001572      0.012030
     13.33419     12.08438     12.56763        -0.001478      0.004126      0.000987
     11.88768      9.95198     12.80845         0.009990     -0.002272      0.011014
     13.67163      1.40047     11.87169        -0.000071      0.000839      0.005042
     14.02066      0.02062     10.82449         0.003322      0.003621      0.000397
      9.13106      9.95632     11.41242        -0.001784      0.004602      0.007005
     11.92009      0.05827     13.08003         0.000690     -0.001945      0.002416
      9.35514     10.18814     13.14503         0.007303      0.003201      0.009446
     10.69297      7.87856     13.06887         0.006295      0.000297      0.005423
      7.92136      7.68702     11.70258        -0.001062      0.006004      0.002530
      8.87037      6.34247     12.58674         0.001768      0.008550     -0.001014
     13.68150      0.30251     11.83162        -0.000101     -0.004063     -0.004931
     11.20323     10.34478     12.03623         0.002659     -0.003854     -0.003009
     11.20914     11.87414     12.09384         0.007059      0.000152      0.006857
      9.81325      9.72493     12.24823         0.012716     -0.006665      0.004665
      9.82048      8.25275     12.51762        -0.013960      0.002411      0.000309
      8.83888      7.37114     12.20929         0.011824     -0.001781      0.010323
 -----------------------------------------------------------------------------------
    total drift:                               -0.122827     -0.217407     -0.083318


--------------------------------------------------------------------------------------------------------



  FREE ENERGIE OF THE ION-ELECTRON SYSTEM (eV)
  ---------------------------------------------------
  free  energy   TOTEN  =     -1392.04993368 eV

  energy  without entropy=    -1392.04993368  energy(sigma->0) =    -1392.04993368
 


--------------------------------------------------------------------------------------------------------


    POTLOK:  cpu time    0.2354: real time    0.2359


--------------------------------------------------------------------------------------------------------


     LOOP+:  cpu time  360.8542: real time  362.3337
    4ORBIT:  cpu time    0.0000: real time    0.0000

 total amount of memory used by VASP MPI-rank0   174993. kBytes
=======================================================================

   base      :      30000. kBytes
   nonlr-proj:      11705. kBytes
   fftplans  :       9317. kBytes
   grid      :      26149. kBytes
   one-center:        870. kBytes
   wavefun   :      96952. kBytes
 
  
  
 General timing and accounting informations for this job:
 ========================================================
  
                  Total CPU time used (sec):      377.218
                            User time (sec):      361.186
                          System time (sec):       16.033
                         Elapsed time (sec):      379.137
  
                   Maximum memory used (kb):      435712.
                   Average memory used (kb):           0.
  
                          Minor page faults:        84791
                          Major page faults:            0
                 Voluntary context switches:         1010
