 vasp.5.4.4.18Apr17-6-g9f103f2a35 (build Oct 13 2017 11:24:24) complex          
  
 executed on             LinuxIFC date 2021.11.07  13:08:25
 running on   48 total cores
 distrk:  each k-point on   48 cores,    1 groups
 distr:  one band on NCORES_PER_BAND=   6 cores,    8 groups


--------------------------------------------------------------------------------------------------------


 INCAR:
 POTCAR:    PAW_PBE Zr_sv 04Jan2005               
 POTCAR:    PAW_PBE O 08Apr2002                   
 POTCAR:    PAW_PBE H 15Jun2001                   
 POTCAR:    PAW_PBE C 08Apr2002                   
 POTCAR:    PAW_PBE Zr_sv 04Jan2005               
   VRHFIN =Zr: 4s4p5s4d                                                         
   LEXCH  = PE                                                                  
   EATOM  =  1284.2219 eV,   94.3876 Ry                                         
                                                                                
   TITEL  = PAW_PBE Zr_sv 04Jan2005                                             
   LULTRA =        F    use ultrasoft PP ?                                      
   IUNSCR =        1    unscreen: 0-lin 1-nonlin 2-no                           
   RPACOR =    2.200    partial core radius                                     
   POMASS =   91.224; ZVAL   =   12.000    mass and valenz                      
   RCORE  =    2.500    outmost cutoff radius                                   
   RWIGS  =    3.070; RWIGS  =    1.625    wigner-seitz radius (au A)           
   ENMAX  =  229.898; ENMIN  =  172.424 eV                                      
   ICORE  =        3    local potential                                         
   LCOR   =        T    correct aug charges                                     
   LPAW   =        T    paw PP                                                  
   EAUG   =  461.257                                                            
   DEXC   =    0.000                                                            
   RMAX   =    2.561    core radius for proj-oper                               
   RAUG   =    1.300    factor for augmentation sphere                          
   RDEP   =    2.597    radius for radial grids                                 
   RDEPT  =    2.007    core radius for aug-charge                              
                                                                                
   Atomic configuration                                                         
   11 entries                                                                   
     n  l   j            E        occ.                                          
     1  0  0.50    -17820.0161   2.0000                                         
     2  0  0.50     -2467.0882   2.0000                                         
     2  1  1.50     -2199.6095   6.0000                                         
     3  0  0.50      -402.4863   2.0000                                         
     3  1  1.50      -315.3675   6.0000                                         
     3  2  2.50      -172.4472  10.0000                                         
     4  0  0.50       -52.4146   2.0000                                         
     5  0  0.50        -3.8421   1.0000                                         
     4  1  1.50       -30.5054   6.0000                                         
     4  2  2.50        -2.3341   3.0000                                         
     4  3  2.50        -1.3606   0.0000                                         
   Description                                                                  
     l       E           TYP  RCUT    TYP  RCUT                                 
     0    -52.4145962     23  2.200                                             
     0     -3.8421270     23  2.500                                             
     1    -30.5053914     23  2.200                                             
     1     20.4087390     23  2.200                                             
     2     -2.3340816     23  2.500                                             
     2     -0.6120942     23  2.500                                             
     3     -4.0817478     23  2.500                                             
  local pseudopotential read in
  partial core-charges read in
  partial kinetic energy density read in
  atomic valenz-charges read in
  non local Contribution for L=           0  read in
    real space projection operators read in
  non local Contribution for L=           0  read in
    real space projection operators read in
  non local Contribution for L=           1  read in
    real space projection operators read in
  non local Contribution for L=           1  read in
    real space projection operators read in
  non local Contribution for L=           2  read in
    real space projection operators read in
  non local Contribution for L=           2  read in
    real space projection operators read in
    PAW grid and wavefunctions read in
 
   number of l-projection  operators is LMAX  =           6
   number of lm-projection operators is LMMAX =          18
 
 POTCAR:    PAW_PBE O 08Apr2002                   
   VRHFIN =O: s2p4                                                              
   LEXCH  = PE                                                                  
   EATOM  =   432.3788 eV,   31.7789 Ry                                         
                                                                                
   TITEL  = PAW_PBE O 08Apr2002                                                 
   LULTRA =        F    use ultrasoft PP ?                                      
   IUNSCR =        1    unscreen: 0-lin 1-nonlin 2-no                           
   RPACOR =    1.200    partial core radius                                     
   POMASS =   16.000; ZVAL   =    6.000    mass and valenz                      
   RCORE  =    1.520    outmost cutoff radius                                   
   RWIGS  =    1.550; RWIGS  =    0.820    wigner-seitz radius (au A)           
   ENMAX  =  400.000; ENMIN  =  300.000 eV                                      
   ICORE  =        2    local potential                                         
   LCOR   =        T    correct aug charges                                     
   LPAW   =        T    paw PP                                                  
   EAUG   =  605.392                                                            
   DEXC   =    0.000                                                            
   RMAX   =    1.553    core radius for proj-oper                               
   RAUG   =    1.300    factor for augmentation sphere                          
   RDEP   =    1.550    radius for radial grids                                 
   RDEPT  =    1.329    core radius for aug-charge                              
                                                                                
   Atomic configuration                                                         
    4 entries                                                                   
     n  l   j            E        occ.                                          
     1  0  0.50      -514.6923   2.0000                                         
     2  0  0.50       -23.9615   2.0000                                         
     2  1  0.50        -9.0305   4.0000                                         
     3  2  1.50        -9.5241   0.0000                                         
   Description                                                                  
     l       E           TYP  RCUT    TYP  RCUT                                 
     0    -23.9615318     23  1.200                                             
     0     -9.5240782     23  1.200                                             
     1     -9.0304911     23  1.520                                             
     1      8.1634956     23  1.520                                             
     2     -9.5240782      7  1.500                                             
  local pseudopotential read in
  partial core-charges read in
  partial kinetic energy density read in
  kinetic energy density of atom read in
  atomic valenz-charges read in
  non local Contribution for L=           0  read in
    real space projection operators read in
  non local Contribution for L=           0  read in
    real space projection operators read in
  non local Contribution for L=           1  read in
    real space projection operators read in
  non local Contribution for L=           1  read in
    real space projection operators read in
    PAW grid and wavefunctions read in
 
   number of l-projection  operators is LMAX  =           4
   number of lm-projection operators is LMMAX =           8
 
 POTCAR:    PAW_PBE H 15Jun2001                   
   VRHFIN =H: ultrasoft test                                                    
   LEXCH  = PE                                                                  
   EATOM  =    12.4884 eV,    0.9179 Ry                                         
                                                                                
   TITEL  = PAW_PBE H 15Jun2001                                                 
   LULTRA =        F    use ultrasoft PP ?                                      
   IUNSCR =        0    unscreen: 0-lin 1-nonlin 2-no                           
   RPACOR =    0.000    partial core radius                                     
   POMASS =    1.000; ZVAL   =    1.000    mass and valenz                      
   RCORE  =    1.100    outmost cutoff radius                                   
   RWIGS  =    0.700; RWIGS  =    0.370    wigner-seitz radius (au A)           
   ENMAX  =  250.000; ENMIN  =  200.000 eV                                      
   RCLOC  =    0.701    cutoff for local pot                                    
   LCOR   =        T    correct aug charges                                     
   LPAW   =        T    paw PP                                                  
   EAUG   =  400.000                                                            
   RMAX   =    1.123    core radius for proj-oper                               
   RAUG   =    1.200    factor for augmentation sphere                          
   RDEP   =    1.112    radius for radial grids                                 
   RDEPT  =    0.926    core radius for aug-charge                              
                                                                                
   Atomic configuration                                                         
    2 entries                                                                   
     n  l   j            E        occ.                                          
     1  0  0.50        -6.4927   1.0000                                         
     2  1  0.50        -3.4015   0.0000                                         
   Description                                                                  
     l       E           TYP  RCUT    TYP  RCUT                                 
     0     -6.4927494     23  1.100                                             
     0      6.8029130     23  1.100                                             
     1     -4.0817478     23  1.100                                             
  local pseudopotential read in
  atomic valenz-charges read in
  non local Contribution for L=           0  read in
    real space projection operators read in
  non local Contribution for L=           0  read in
    real space projection operators read in
  non local Contribution for L=           1  read in
    real space projection operators read in
    PAW grid and wavefunctions read in
 
   number of l-projection  operators is LMAX  =           3
   number of lm-projection operators is LMMAX =           5
 
 POTCAR:    PAW_PBE C 08Apr2002                   
   VRHFIN =C: s2p2                                                              
   LEXCH  = PE                                                                  
   EATOM  =   147.1560 eV,   10.8157 Ry                                         
                                                                                
   TITEL  = PAW_PBE C 08Apr2002                                                 
   LULTRA =        F    use ultrasoft PP ?                                      
   IUNSCR =        1    unscreen: 0-lin 1-nonlin 2-no                           
   RPACOR =    1.200    partial core radius                                     
   POMASS =   12.011; ZVAL   =    4.000    mass and valenz                      
   RCORE  =    1.500    outmost cutoff radius                                   
   RWIGS  =    1.630; RWIGS  =    0.863    wigner-seitz radius (au A)           
   ENMAX  =  400.000; ENMIN  =  300.000 eV                                      
   ICORE  =        2    local potential                                         
   LCOR   =        T    correct aug charges                                     
   LPAW   =        T    paw PP                                                  
   EAUG   =  644.873                                                            
   DEXC   =    0.000                                                            
   RMAX   =    1.529    core radius for proj-oper                               
   RAUG   =    1.300    factor for augmentation sphere                          
   RDEP   =    1.501    radius for radial grids                                 
   RDEPT  =    1.300    core radius for aug-charge                              
                                                                                
   Atomic configuration                                                         
    4 entries                                                                   
     n  l   j            E        occ.                                          
     1  0  0.50      -273.3789   2.0000                                         
     2  0  0.50       -13.7508   2.0000                                         
     2  1  0.50        -5.2854   2.0000                                         
     3  2  1.50        -5.4423   0.0000                                         
   Description                                                                  
     l       E           TYP  RCUT    TYP  RCUT                                 
     0    -13.7508458     23  1.200                                             
     0     -8.2022199     23  1.200                                             
     1     -5.2854383     23  1.500                                             
     1     34.0145650     23  1.500                                             
     2     -5.4423304      7  1.500                                             
  local pseudopotential read in
  partial core-charges read in
  partial kinetic energy density read in
  atomic valenz-charges read in
  non local Contribution for L=           0  read in
    real space projection operators read in
  non local Contribution for L=           0  read in
    real space projection operators read in
  non local Contribution for L=           1  read in
    real space projection operators read in
  non local Contribution for L=           1  read in
    real space projection operators read in
    PAW grid and wavefunctions read in
 
   number of l-projection  operators is LMAX  =           4
   number of lm-projection operators is LMMAX =           8
 
 Optimization of the real space projectors (new method)

 maximal supplied QI-value         = 15.12
 optimisation between [QCUT,QGAM] = [ 11.34, 22.83] = [ 36.00,145.93] Ry 
 Optimized for a Real-space Cutoff    1.47 Angstroem

   l    n(q)    QCUT    max X(q) W(low)/X(q) W(high)/X(q)  e(spline) 
   0     10    11.338    12.107    0.38E-04    0.13E-04    0.27E-07
   0     10    11.338     9.948    0.69E-04    0.30E-04    0.38E-07
   1     10    11.338     3.563    0.26E-04    0.18E-04    0.40E-07
   1     10    11.338     4.524    0.25E-03    0.39E-04    0.44E-06
   2      9    11.338    87.261    0.26E-03    0.91E-05    0.26E-06
   2      9    11.338    70.950    0.25E-03    0.91E-05    0.25E-06
 Optimization of the real space projectors (new method)

 maximal supplied QI-value         = 24.76
 optimisation between [QCUT,QGAM] = [ 11.39, 22.77] = [ 36.31,145.25] Ry 
 Optimized for a Real-space Cutoff    1.00 Angstroem

   l    n(q)    QCUT    max X(q) W(low)/X(q) W(high)/X(q)  e(spline) 
   0      7    11.387    20.381    0.39E-03    0.13E-02    0.15E-06
   0      7    11.387    15.268    0.42E-03    0.14E-02    0.17E-06
   1      6    11.387     5.964    0.41E-03    0.11E-02    0.17E-06
   1      6    11.387     5.382    0.39E-03    0.87E-03    0.15E-06
 Optimization of the real space projectors (new method)

 maximal supplied QI-value         = 34.20
 optimisation between [QCUT,QGAM] = [ 11.29, 22.57] = [ 35.68,142.71] Ry 
 Optimized for a Real-space Cutoff    1.16 Angstroem

   l    n(q)    QCUT    max X(q) W(low)/X(q) W(high)/X(q)  e(spline) 
   0      8    11.287    19.460    0.40E-03    0.73E-03    0.16E-06
   0      8    11.287    12.209    0.38E-03    0.70E-03    0.15E-06
   1      7    11.287     4.655    0.22E-03    0.25E-04    0.22E-06
 Optimization of the real space projectors (new method)

 maximal supplied QI-value         = 25.13
 optimisation between [QCUT,QGAM] = [ 11.31, 22.87] = [ 35.82,146.48] Ry 
 Optimized for a Real-space Cutoff    1.00 Angstroem

   l    n(q)    QCUT    max X(q) W(low)/X(q) W(high)/X(q)  e(spline) 
   0      7    11.310   115.676    0.43E-03    0.13E-02    0.19E-06
   0      7    11.310    87.132    0.43E-03    0.13E-02    0.18E-06
   1      6    11.310     4.429    0.42E-03    0.74E-03    0.11E-06
   1      6    11.310     2.733    0.34E-03    0.55E-03    0.92E-07
  PAW_PBE Zr_sv 04Jan2005               :
 energy of atom  1       EATOM=-1284.2219
 kinetic energy error for atom=    0.0049 (will be added to EATOM!!)
  PAW_PBE O 08Apr2002                   :
 energy of atom  2       EATOM= -432.3788
 kinetic energy error for atom=    0.0224 (will be added to EATOM!!)
  PAW_PBE H 15Jun2001                   :
 energy of atom  3       EATOM=  -12.4884
 kinetic energy error for atom=    0.0020 (will be added to EATOM!!)
  PAW_PBE C 08Apr2002                   :
 energy of atom  4       EATOM= -147.1560
 kinetic energy error for atom=    0.0076 (will be added to EATOM!!)
 
 
 POSCAR: CONTCAR\(2)\(2)                         
  positions in direct lattice
  velocities in cartesian coordinates
  No initial velocities read in
 exchange correlation table for  LEXCH =        8
   RHO(1)=    0.500       N(1)  =     2000
   RHO(2)=  100.500       N(2)  =     4000
 


--------------------------------------------------------------------------------------------------------


 ion  position               nearest neighbor table
   1  0.088  0.321  0.038-  78 2.10  62 2.10  50 2.18  74 2.19  61 2.26  54 2.30  16 3.37   6 3.50
                            12 3.52  13 3.65
   2  0.338  0.821  0.038-  79 2.10  63 2.10  51 2.18  75 2.19  58 2.26  55 2.30  13 3.37   7 3.50
                             9 3.52  14 3.65
   3  0.588  0.321  0.038-  80 2.10  64 2.10  52 2.18  76 2.19  59 2.26  56 2.30  14 3.37   8 3.50
                            10 3.52  15 3.65
   4  0.838  0.821  0.038-  81 2.10  65 2.10  53 2.18  77 2.19  60 2.26  57 2.30  15 3.37   5 3.50
                            11 3.52  16 3.65
   5  0.070  0.834  0.049-  82 2.07  66 2.10  65 2.18  58 2.19  57 2.22  70 2.30  12 3.37  17 3.46
                             4 3.50  16 3.52   9 3.65
   6  0.320  0.334  0.049-  83 2.06  67 2.10  62 2.18  59 2.19  54 2.22  71 2.30   9 3.37  18 3.47
                             1 3.50  13 3.52  10 3.65
   7  0.570  0.834  0.049-  84 2.06  68 2.10  63 2.18  60 2.19  55 2.22  72 2.30  10 3.37  19 3.48
                             2 3.50  14 3.52  11 3.65
   8  0.820  0.334  0.049-  85 2.07  69 2.10  64 2.18  61 2.19  56 2.22  73 2.30  11 3.37   3 3.50
                            20 3.51  15 3.52  12 3.65
   9  0.238  0.068  0.057-  62 2.10  86 2.16  67 2.18  70 2.19  75 2.22  58 2.30   6 3.37  17 3.49
                            14 3.50  22 3.52   2 3.52   5 3.65
  10  0.488  0.568  0.057-  63 2.10  87 2.17  68 2.18  71 2.19  76 2.22  59 2.30   7 3.37  18 3.48
                            15 3.50  23 3.52   3 3.52   6 3.65
  11  0.738  0.068  0.057-  64 2.10  69 2.18  88 2.18  72 2.19  77 2.22  60 2.30   8 3.37  19 3.47
                            16 3.50   4 3.52  24 3.53   7 3.65
  12  0.988  0.568  0.057-  65 2.10  66 2.18  89 2.18  73 2.19  74 2.22  61 2.30   5 3.37  13 3.50
                             1 3.52  20 3.52  21 3.53   8 3.65
  13  0.220  0.581  0.068-  51 2.10  66 2.10  79 2.18  54 2.19  90 2.26  71 2.26  74 2.30   2 3.37
                            21 3.50  26 3.50  18 3.50  12 3.50   6 3.52   1 3.65
  14  0.470  0.081  0.068-  52 2.10  67 2.10  80 2.18  55 2.19  72 2.26  91 2.26  75 2.30   3 3.37
                            27 3.48  22 3.49   9 3.50  19 3.52   7 3.52   2 3.65
  15  0.720  0.581  0.068-  53 2.10  68 2.10  81 2.18  56 2.19  73 2.26  92 2.26  76 2.30   4 3.37
                            23 3.49  28 3.50  10 3.50   8 3.52  20 3.53   3 3.65
  16  0.970  0.081  0.068-  50 2.10  69 2.10  78 2.18  57 2.19  70 2.26  93 2.26  77 2.30   1 3.37
                            17 3.50  11 3.50  25 3.50  24 3.51   5 3.52   4 3.65
  17  0.106  0.982  0.171-  94 2.09 110 2.13  82 2.16  70 2.19 106 2.20  93 2.23  86 2.31  32 3.40
                             5 3.46   9 3.49  16 3.50  22 3.53  25 3.54  29 3.67
  18  0.356  0.484  0.171-  95 2.09 111 2.13  83 2.16  71 2.19 107 2.19  90 2.23  87 2.30  29 3.38
                             6 3.47  10 3.48  13 3.50  23 3.52  26 3.54  30 3.65
  19  0.608  0.984  0.171-  96 2.09 112 2.14  84 2.18  72 2.19 108 2.20  91 2.23  88 2.28  30 3.39
                            11 3.47   7 3.48  24 3.49  14 3.52  27 3.52  31 3.69
  20  0.856  0.483  0.173-  97 2.10 113 2.11  85 2.19 109 2.19  92 2.23  73 2.24  89 2.32  31 3.33
                            28 3.49   8 3.51  12 3.52  21 3.52  15 3.53  32 3.63
  21  0.089  0.495  0.183- 114 2.09  98 2.11  97 2.17  90 2.18  74 2.24  89 2.27 102 2.29  25 3.37
                            13 3.50  32 3.51  20 3.52  12 3.53  26 3.62  33 3.64
  22  0.339  0.995  0.182- 115 2.10  99 2.11  94 2.17  91 2.19  75 2.23 103 2.25  86 2.27  26 3.38
                            14 3.49  29 3.51   9 3.52  17 3.53  34 3.61  27 3.62
  23  0.589  0.492  0.182- 100 2.08 116 2.12  95 2.17  92 2.18  76 2.22  87 2.29 104 2.31  27 3.36
                            15 3.49  35 3.50  18 3.52  10 3.52  30 3.56  28 3.69
  24  0.839  0.995  0.183- 117 2.10 101 2.10  96 2.18  93 2.18  77 2.25  88 2.27 105 2.28  28 3.36
                            19 3.49  16 3.51  11 3.53  31 3.53  36 3.61  25 3.64
  25  0.005  0.230  0.191-  78 2.10  97 2.10 121 2.17  98 2.19 105 2.21 106 2.29  93 2.30  21 3.37
                            37 3.45  16 3.50  17 3.54  29 3.55  24 3.64  36 3.66
  26  0.253  0.730  0.191-  94 2.10  79 2.10 102 2.18  99 2.20 118 2.20 107 2.29  90 2.29  22 3.38
                            38 3.46  13 3.50  18 3.54  30 3.54  21 3.62  33 3.66
  27  0.504  0.229  0.191-  80 2.09  95 2.11 119 2.18 100 2.19 103 2.19  91 2.29 108 2.29  23 3.36
                            39 3.47  14 3.48  19 3.52  31 3.59  22 3.62  34 3.65
  28  0.758  0.729  0.191-  81 2.09  96 2.12 101 2.16 120 2.22 109 2.23 104 2.23  92 2.30  24 3.36
                            32 3.48  20 3.49  35 3.49  15 3.50  40 3.60  23 3.69
  29  0.240  0.242  0.201-  98 2.10  83 2.10 122 2.19 103 2.21 111 2.22  86 2.23 106 2.28  18 3.38
                            37 3.41  42 3.50  22 3.51  25 3.55  34 3.63  17 3.67
  30  0.488  0.743  0.200-  99 2.08  84 2.09 112 2.20 123 2.20  87 2.22 104 2.25 107 2.29  19 3.39
                            38 3.44  35 3.49  43 3.50  26 3.54  23 3.56  18 3.65
  31  0.741  0.245  0.203-  85 2.11 113 2.12 100 2.12 105 2.21 124 2.25  88 2.28 108 2.32  20 3.33
                            39 3.45  44 3.53  24 3.53  27 3.59  36 3.64  19 3.69
  32  0.988  0.740  0.203- 101 2.11  82 2.15 110 2.19 102 2.21 125 2.22  89 2.23 109 2.26  17 3.40
                            41 3.45  28 3.48  21 3.51  40 3.55  33 3.62  20 3.63
  33  0.123  0.641  0.314- 142 2.02 126 2.16 138 2.17 114 2.21 125 2.23 118 2.39 102 2.41  45 3.23
                            41 3.47  38 3.55  32 3.62  21 3.64  26 3.66  46 3.72
  34  0.371  0.140  0.313- 143 2.03 127 2.14 139 2.19 115 2.19 122 2.23 119 2.36 103 2.43  46 3.23
                            42 3.49  39 3.53  22 3.61  29 3.63  27 3.65  47 3.66
  35  0.622  0.648  0.304- 140 2.15 123 2.18 104 2.20 128 2.20 116 2.20 144 2.23 120 2.23  49 3.20
                            47 3.42  43 3.42  30 3.49  28 3.49  23 3.50  40 3.57  48 3.70
  36  0.874  0.137  0.314- 145 2.03 129 2.12 141 2.13 117 2.22 124 2.30 105 2.38 121 2.45  48 3.22
                            44 3.40  37 3.55  24 3.61  31 3.64  25 3.66  45 3.76
  37  0.110  0.161  0.312- 130 2.09 121 2.14 106 2.16 129 2.16 122 2.16 134 2.17  29 3.41  25 3.45
                            41 3.45  45 3.51  36 3.55  42 3.58
  38  0.358  0.660  0.313- 131 2.10 126 2.15 118 2.16 107 2.16 135 2.16 123 2.17  42 3.44  30 3.44
                            26 3.46  46 3.53  33 3.55  43 3.59
  39  0.606  0.158  0.313- 136 2.10 132 2.11 127 2.15 108 2.15 124 2.18 119 2.21  43 3.42  31 3.45
                            47 3.47  27 3.47  34 3.53  44 3.68
  40  0.857  0.663  0.322- 146 2.12 133 2.13 137 2.20 120 2.21 125 2.21 128 2.31 109 2.36  49 3.39
                            48 3.44  44 3.53  32 3.55  35 3.57  41 3.60  28 3.60
  41  0.027  0.889  0.324- 110 2.05 137 2.14 138 2.15 129 2.16 130 2.21 125 2.30  32 3.45  37 3.45
                            33 3.47  46 3.50  40 3.60
  42  0.275  0.389  0.325- 111 2.06 139 2.13 126 2.14 134 2.25 131 2.26 122 2.29  38 3.44  34 3.49
                            47 3.50  29 3.50  37 3.58
  43  0.524  0.888  0.325- 112 2.06 140 2.14 127 2.14 132 2.18 135 2.27 123 2.30  39 3.42  35 3.42
                            30 3.50  48 3.56  38 3.59
  44  0.784  0.381  0.332- 147 2.10 141 2.11 133 2.15 113 2.20 124 2.23 128 2.23 136 2.66  49 3.19
                            36 3.40  45 3.42  40 3.53  31 3.53  39 3.68
  45  0.011  0.406  0.336- 142 2.02 114 2.07 133 2.15 141 2.23 121 2.30 134 2.30  33 3.23  44 3.42
                            37 3.51  36 3.76
  46  0.259  0.907  0.336- 143 2.03 115 2.07 130 2.14 138 2.26 118 2.29 135 2.31  34 3.23  41 3.50
                            38 3.53  33 3.72
  47  0.507  0.400  0.334- 116 2.06 136 2.13 131 2.17 119 2.22 144 2.24 139 2.24  35 3.42  39 3.47
                            42 3.50  34 3.66  49 3.90
  48  0.760  0.906  0.337- 145 2.01 117 2.06 132 2.19 137 2.21 120 2.32 140 2.37  36 3.22  40 3.44
                            43 3.56  35 3.70
  49  0.705  0.552  0.415- 147 1.92 146 1.98 144 2.11 128 2.21 164 2.73 163 2.88  44 3.19  35 3.20
                            40 3.39  47 3.90
  50  0.024  0.173  0.000-  16 2.10   1 2.18
  51  0.274  0.673  0.000-  13 2.10   2 2.18
  52  0.524  0.173  0.000-  14 2.10   3 2.18
  53  0.774  0.673  0.000-  15 2.10   4 2.18
  54  0.215  0.432  0.016-  13 2.19   6 2.22   1 2.30
  55  0.465  0.932  0.016-  14 2.19   7 2.22   2 2.30
  56  0.715  0.432  0.016-  15 2.19   8 2.22   3 2.30
  57  0.965  0.932  0.016-  16 2.19   5 2.22   4 2.30
  58  0.207  0.891  0.025-   5 2.19   2 2.26   9 2.30
  59  0.457  0.391  0.025-   6 2.19   3 2.26  10 2.30
  60  0.707  0.891  0.025-   7 2.19   4 2.26  11 2.30
  61  0.957  0.391  0.025-   8 2.19   1 2.26  12 2.30
  62  0.197  0.226  0.044-   9 2.10   1 2.10   6 2.18
  63  0.447  0.726  0.044-  10 2.10   2 2.10   7 2.18
  64  0.697  0.226  0.044-  11 2.10   3 2.10   8 2.18
  65  0.947  0.726  0.044-  12 2.10   4 2.10   5 2.18
  66  0.111  0.675  0.062-   5 2.10  13 2.10  12 2.18
  67  0.361  0.175  0.062-   6 2.10  14 2.10   9 2.18
  68  0.611  0.675  0.062-   7 2.10  15 2.10  10 2.18
  69  0.861  0.175  0.062-   8 2.10  16 2.10  11 2.18
  70  0.101  0.010  0.081-  17 2.19   9 2.19  16 2.26   5 2.30
  71  0.351  0.510  0.081-  18 2.19  10 2.19  13 2.26   6 2.30
  72  0.601  0.010  0.081-  19 2.19  11 2.19  14 2.26   7 2.30
  73  0.851  0.510  0.081-  12 2.19  20 2.24  15 2.26   8 2.30
  74  0.093  0.470  0.090-   1 2.19  12 2.22  21 2.24  13 2.30
  75  0.343  0.970  0.090-   2 2.19   9 2.22  22 2.23  14 2.30
  76  0.593  0.470  0.090-   3 2.19  10 2.22  23 2.22  15 2.30
  77  0.843  0.970  0.090-   4 2.19  11 2.22  24 2.25  16 2.30
  78  0.034  0.229  0.106-   1 2.10  25 2.10  16 2.18
  79  0.284  0.729  0.106-   2 2.10  26 2.10  13 2.18
  80  0.534  0.229  0.106-  27 2.09   3 2.10  14 2.18
  81  0.784  0.729  0.106-  28 2.09   4 2.10  15 2.18
  82  0.045  0.832  0.134-   5 2.07  32 2.15  17 2.16
  83  0.296  0.334  0.133-   6 2.06  29 2.10  18 2.16
  84  0.546  0.834  0.133-   7 2.06  30 2.09  19 2.18
  85  0.796  0.333  0.134-   8 2.07  31 2.11  20 2.19
  86  0.231  0.093  0.146-   9 2.16  29 2.23  22 2.27  17 2.31
  87  0.481  0.593  0.147-  10 2.17  30 2.22  23 2.29  18 2.30
  88  0.732  0.094  0.147-  11 2.18  24 2.27  19 2.28  31 2.28
  89  0.982  0.593  0.147-  12 2.18  32 2.23  21 2.27  20 2.32
  90  0.226  0.552  0.160-  21 2.18  18 2.23  13 2.26  26 2.29
  91  0.476  0.051  0.161-  22 2.19  19 2.23  14 2.26  27 2.29
  92  0.725  0.552  0.161-  23 2.18  20 2.23  15 2.26  28 2.30
  93  0.975  0.052  0.161-  24 2.18  17 2.23  16 2.26  25 2.30
  94  0.215  0.890  0.181-  17 2.09  26 2.10  22 2.17
  95  0.464  0.389  0.180-  18 2.09  27 2.11  23 2.17
  96  0.715  0.889  0.181-  19 2.09  28 2.12  24 2.18
  97  0.965  0.390  0.182-  20 2.10  25 2.10  21 2.17
  98  0.130  0.335  0.192-  29 2.10  21 2.11  25 2.19
  99  0.379  0.835  0.193-  30 2.08  22 2.11  26 2.20
 100  0.628  0.335  0.194-  23 2.08  31 2.12  27 2.19
 101  0.880  0.836  0.194-  24 2.10  32 2.11  28 2.16
 102  0.118  0.671  0.215-  26 2.18  32 2.21  21 2.29  33 2.41
 103  0.367  0.169  0.213-  27 2.19  29 2.21  22 2.25  34 2.43
 104  0.618  0.671  0.213-  35 2.20  28 2.23  30 2.25  23 2.31
 105  0.868  0.169  0.216-  25 2.21  31 2.21  24 2.28  36 2.38
 106  0.116  0.130  0.224-  37 2.16  17 2.20  29 2.28  25 2.29
 107  0.364  0.631  0.224-  38 2.16  18 2.19  26 2.29  30 2.29
 108  0.615  0.131  0.225-  39 2.15  19 2.20  27 2.29  31 2.32
 109  0.864  0.632  0.225-  20 2.19  28 2.23  32 2.26  40 2.36
 110  0.047  0.893  0.240-  41 2.05  17 2.13  32 2.19
 111  0.297  0.396  0.241-  42 2.06  18 2.13  29 2.22
 112  0.547  0.893  0.240-  43 2.06  19 2.14  30 2.20
 113  0.798  0.393  0.241-  20 2.11  31 2.12  44 2.20
 114  0.070  0.492  0.269-  45 2.07  21 2.09  33 2.21
 115  0.315  0.992  0.268-  46 2.07  22 2.10  34 2.19
 116  0.560  0.494  0.268-  47 2.06  23 2.12  35 2.20
 117  0.810  0.993  0.269-  48 2.06  24 2.10  36 2.22
 118  0.252  0.750  0.283-  38 2.16  26 2.20  46 2.29  33 2.39
 119  0.497  0.250  0.281-  27 2.18  39 2.21  47 2.22  34 2.36
 120  0.749  0.747  0.283-  40 2.21  28 2.22  35 2.23  48 2.32
 121  0.006  0.251  0.281-  37 2.14  25 2.17  45 2.30  36 2.45
 122  0.246  0.214  0.291-  37 2.16  29 2.19  34 2.23  42 2.29
 123  0.494  0.712  0.290-  38 2.17  35 2.18  30 2.20  43 2.30
 124  0.744  0.215  0.296-  39 2.18  44 2.23  31 2.25  36 2.30
 125  0.995  0.711  0.294-  40 2.21  32 2.22  33 2.23  41 2.30
 126  0.239  0.554  0.329-  42 2.14  38 2.15  33 2.16
 127  0.486  0.052  0.327-  34 2.14  43 2.14  39 2.15
 128  0.729  0.544  0.324-  35 2.20  49 2.21  44 2.23  40 2.31
 129  0.990  0.056  0.329-  36 2.12  37 2.16  41 2.16
 130  0.148  0.004  0.330-  37 2.09  46 2.14  41 2.21
 131  0.398  0.505  0.336-  38 2.10  47 2.17  42 2.26
 132  0.643  0.000  0.334-  39 2.11  43 2.18  48 2.19
 133  0.897  0.500  0.328-  40 2.13  44 2.15  45 2.15
 134  0.138  0.320  0.352-  37 2.17  42 2.25  45 2.30
 135  0.386  0.819  0.352-  38 2.16  43 2.27  46 2.31
 136  0.617  0.310  0.355-  39 2.10  47 2.13  44 2.66
 137  0.891  0.838  0.343-  41 2.14  40 2.20  48 2.21
 138  0.133  0.799  0.356-  41 2.15  33 2.17  46 2.26
 139  0.381  0.299  0.355-  42 2.13  34 2.19  47 2.24
 140  0.627  0.794  0.355-  43 2.14  35 2.15  48 2.37
 141  0.892  0.292  0.355-  44 2.11  36 2.13  45 2.23
 142  0.067  0.542  0.375-  33 2.02  45 2.02
 143  0.316  0.043  0.375-  34 2.03  46 2.03
 144  0.578  0.544  0.377-  49 2.11  35 2.23  47 2.24
 145  0.816  0.042  0.375-  48 2.01  36 2.03
 146  0.799  0.674  0.402-  49 1.98  40 2.12
 147  0.761  0.417  0.416-  49 1.92  44 2.10
 148  0.581  0.327  0.454- 162 1.10
 149  0.493  0.486  0.485- 161 1.10
 150  0.420  0.251  0.529- 160 1.10
 151  0.501  0.441  0.554- 161 1.11
 152  0.463  0.175  0.473- 160 1.10
 153  0.411  0.295  0.459- 160 1.10
 154  0.588  0.285  0.523- 162 1.10
 155  0.676  0.466  0.539- 163 1.10
 156  0.707  0.657  0.526- 164 1.10
 157  0.607  0.758  0.463- 165 1.10
 158  0.560  0.753  0.530- 165 1.10
 159  0.516  0.661  0.478- 165 1.10
 160  0.455  0.258  0.489- 152 1.10 150 1.10 153 1.10 162 1.53
 161  0.536  0.444  0.514- 149 1.10 151 1.11 163 1.50 162 1.54
 162  0.545  0.325  0.494- 154 1.10 148 1.10 160 1.53 161 1.54
 163  0.623  0.511  0.522- 155 1.10 164 1.36 161 1.50  49 2.88
 164  0.641  0.621  0.514- 156 1.10 163 1.36 165 1.50  49 2.73
 165  0.577  0.701  0.495- 159 1.10 157 1.10 158 1.10 164 1.50
 
  Warning from LATTYP: Monoclinic adjustement (A1->A3, A2->A1, A3->A2)!
  Warning from LATTYP: Got some problem with cell dimensions!
  Tried to take original basis but could not verify dimensions!
  LATTYP: Found a simple monoclinic cell.
 ALAT       =    18.5584556648
 B/A-ratio  =     1.2917238965
 C/A-ratio  =     1.7011970181
 COS(beta)  =    -0.9496615564
  
  Lattice vectors:
  
 A1 = ( -14.0305058395, -12.1474763861,   0.0000000000)
 A2 = (   0.0000000000,   0.0000000000, -23.9724006653)
 A3 = (  29.1411063110,  12.1474763861,   0.0000000000)


Analysis of symmetry for initial positions (statically):
=====================================================================
 Subroutine PRICEL returns:
 Original cell was already a primitive cell.
 

 Routine SETGRP: Setting up the symmetry group for a 
 simple monoclinic supercell.


 Subroutine GETGRP returns: Found  1 space group operations
 (whereof  1 operations were pure point group operations)
 out of a pool of  4 trial point group operations.


The static configuration has the point symmetry C_1 .


Analysis of symmetry for dynamics (positions and initial velocities):
=====================================================================
 Subroutine PRICEL returns:
 Original cell was already a primitive cell.
 

 Routine SETGRP: Setting up the symmetry group for a 
 simple monoclinic supercell.


 Subroutine GETGRP returns: Found  1 space group operations
 (whereof  1 operations were pure point group operations)
 out of a pool of  4 trial point group operations.


The dynamic configuration has the point symmetry C_1 .


Analysis of constrained symmetry for selective dynamics:
=====================================================================
 Subroutine PRICEL returns:
 Original cell was already a primitive cell.
 

 Routine SETGRP: Setting up the symmetry group for a 
 simple monoclinic supercell.


 Subroutine GETGRP returns: Found  1 space group operations
 (whereof  1 operations were pure point group operations)
 out of a pool of  4 trial point group operations.


The constrained configuration has the point symmetry C_1 .


Analysis of structural, dynamic, and magnetic symmetry:
=====================================================================
 Subroutine PRICEL returns:
 Original cell was already a primitive cell.
 

 Routine SETGRP: Setting up the symmetry group for a 
 simple monoclinic supercell.


 Subroutine GETGRP returns: Found  1 space group operations
 (whereof  1 operations were pure point group operations)
 out of a pool of  4 trial point group operations.


The magnetic configuration has the point symmetry C_1 .


 Subroutine INISYM returns: Found  1 space group operations
 (whereof  1 operations are pure point group operations),
 and found     1 'primitive' translations

 
 
 KPOINTS: Monkhorst Pack                          

Automatic generation of k-mesh.
Space group operators:
 irot       det(A)        alpha          n_x          n_y          n_z        tau_x        tau_y        tau_z
    1     1.000000     0.000001     1.000000     0.000000     0.000000     0.000000     0.000000     0.000000
 
 Subroutine IBZKPT returns following result:
 ===========================================
 
 Found      2 irreducible k-points:
 
 Following reciprocal coordinates:
            Coordinates               Weight
  0.250000  0.250000  0.000000      2.000000
 -0.250000  0.250000  0.000000      2.000000
 
 Following cartesian coordinates:
            Coordinates               Weight
  0.016545  0.022051  0.000000      2.000000
 -0.016545  0.019109  0.000000      2.000000
 


--------------------------------------------------------------------------------------------------------




 Dimension of arrays:
   k-points           NKPTS =      2   k-points in BZ     NKDIM =      2   number of bands    NBANDS=    640
   number of dos      NEDOS =    301   number of ions     NIONS =    165
   non local maximal  LDIM  =      6   non local SUM 2l+1 LMDIM =     18
   total plane-waves  NPLWV = 823200
   max r-space proj   IRMAX =   2561   max aug-charges    IRDMAX=   7978
   dimension x,y,z NGX =    84 NGY =   70 NGZ =  140
   dimension x,y,z NGXF=   168 NGYF=  140 NGZF=  280
   support grid    NGXF=   168 NGYF=  140 NGZF=  280
   ions per type =              49  98  12   6
   NGX,Y,Z   is equivalent  to a cutoff of   9.24,  9.54,  9.71 a.u.
   NGXF,Y,Z  is equivalent  to a cutoff of  18.48, 19.08, 19.42 a.u.

 SYSTEM =  mZrO2_n111                              
 POSCAR =  CONTCAR\(2)\(2)                         

 Startparameter for this run:
   NWRITE =      2    write-flag & timer
   PREC   = normal    normal or accurate (medium, high low for compatibility)
   ISTART =      1    job   : 0-new  1-cont  2-samecut
   ICHARG =      1    charge: 1-file 2-atom 10-const
   ISPIN  =      2    spin polarized calculation?
   LNONCOLLINEAR =      F non collinear calculations
   LSORBIT =      F    spin-orbit coupling
   INIWAV =      1    electr: 0-lowe 1-rand  2-diag
   LASPH  =      F    aspherical Exc in radial PAW
   METAGGA=      F    non-selfconsistent MetaGGA calc.

 Electronic Relaxation 1
   ENCUT  =  500.0 eV  36.75 Ry    6.06 a.u.  27.55 22.24 43.71*2*pi/ulx,y,z
   ENINI  =  500.0     initial cutoff
   ENAUG  =  644.9 eV  augmentation charge cutoff
   NELM   =    300;   NELMIN=  2; NELMDL=  0     # of ELM steps 
   EDIFF  = 0.1E-05   stopping-criterion for ELM
   LREAL  =      T    real-space projection
   NLSPLINE    = F    spline interpolate recip. space projectors
   LCOMPAT=      F    compatible to vasp.4.4
   GGA_COMPAT  = T    GGA compatible to vasp.4.4-vasp.4.6
   LMAXPAW     = -100 max onsite density
   LMAXMIX     =    2 max onsite mixed and CHGCAR
   VOSKOWN=      0    Vosko Wilk Nusair interpolation
   ROPT   =   -0.00050  -0.00050  -0.00050  -0.00050
 Ionic relaxation
   EDIFFG = -.2E-01   stopping-criterion for IOM
   NSW    =      0    number of steps for IOM
   NBLOCK =      1;   KBLOCK =      1    inner block; outer block 
   IBRION =     -1    ionic relax: 0-MD 1-quasi-New 2-CG
   NFREE  =      1    steps in history (QN), initial steepest desc. (CG)
   ISIF   =      2    stress and relaxation
   IWAVPR =     10    prediction:  0-non 1-charg 2-wave 3-comb
   ISYM   =      2    0-nonsym 1-usesym 2-fastsym
   LCORR  =      T    Harris-Foulkes like correction to forces

   POTIM  = 0.5000    time-step for ionic-motion
   TEIN   =    0.0    initial temperature
   TEBEG  =    0.0;   TEEND  =   0.0 temperature during run
   SMASS  =  -3.00    Nose mass-parameter (am)
   estimated Nose-frequenzy (Omega)   =  0.10E-29 period in steps =****** mass=  -0.522E-26a.u.
   SCALEE = 1.0000    scale energy and forces
   NPACO  =    256;   APACO  = 16.0  distance and # of slots for P.C.
   PSTRESS=    0.0 pullay stress

  Mass of Ions in am
   POMASS =  91.22 16.00  1.00 12.01
  Ionic Valenz
   ZVAL   =  12.00  6.00  1.00  4.00
  Atomic Wigner-Seitz radii
   RWIGS  =  -1.00 -1.00 -1.00 -1.00
  virtual crystal weights 
   VCA    =   1.00  1.00  1.00  1.00
   NELECT =    1212.0000    total number of electrons
   NUPDOWN=      -1.0000    fix difference up-down

 DOS related values:
   EMIN   =  10.00;   EMAX   =-10.00  energy-range for DOS
   EFERMI =   0.00
   ISMEAR =     0;   SIGMA  =   0.05  broadening in eV -4-tet -1-fermi 0-gaus

 Electronic relaxation 2 (details)
   IALGO  =     38    algorithm
   LDIAG  =      T    sub-space diagonalisation (order eigenvalues)
   LSUBROT=      F    optimize rotation matrix (better conditioning)
   TURBO    =      0    0=normal 1=particle mesh
   IRESTART =      0    0=no restart 2=restart with 2 vectors
   NREBOOT  =      0    no. of reboots
   NMIN     =      0    reboot dimension
   EREF     =   0.00    reference energy to select bands
   IMIX   =      4    mixing-type and parameters
     AMIX     =   0.40;   BMIX     =  1.00
     AMIX_MAG =   1.60;   BMIX_MAG =  1.00
     AMIN     =   0.10
     WC   =   100.;   INIMIX=   1;  MIXPRE=   1;  MAXMIX= -45

 Intra band minimization:
   WEIMIN = 0.0000     energy-eigenvalue tresh-hold
   EBREAK =  0.39E-09  absolut break condition
   DEPER  =   0.30     relativ break condition  

   TIME   =   0.40     timestep for ELM

  volume/ion in A,a.u.               =      26.67       179.97
  Fermi-wavevector in a.u.,A,eV,Ry     =   1.065163  2.012866 15.436782  1.134571
  Thomas-Fermi vector in A             =   2.200705
 
 Write flags
   LWAVE        =      F    write WAVECAR
   LDOWNSAMPLE  =      F    k-point downsampling of WAVECAR
   LCHARG       =      F    write CHGCAR
   LVTOT        =      F    write LOCPOT, total local potential
   LVHAR        =      F    write LOCPOT, Hartree potential only
   LELF         =      F    write electronic localiz. function (ELF)
   LORBIT       =      0    0 simple, 1 ext, 2 COOP (PROOUT), +10 PAW based schemes


 Dipole corrections
   LMONO  =      F    monopole corrections only (constant potential shift)
   LDIPOL =      F    correct potential (dipole corrections)
   IDIPOL =      3    1-x, 2-y, 3-z, 4-all directions 
   EPSILON=  1.0000000 bulk dielectric constant

 LDA+U is selected, type is set to LDAUTYPE =  2
   angular momentum for each species LDAUL =     2   -1   -1   -1
   U (eV)           for each species LDAUU =   4.0  0.0  0.0  0.0
   J (eV)           for each species LDAUJ =   0.0  0.0  0.0  0.0
 Exchange correlation treatment:
   GGA     =    --    GGA type
   LEXCH   =     8    internal setting for exchange type
   VOSKOWN=      0    Vosko Wilk Nusair interpolation
   LHFCALC =     F    Hartree Fock is set to
   LHFONE  =     F    Hartree Fock one center treatment
   AEXX    =    0.0000 exact exchange contribution

 Linear response parameters
   LEPSILON=     F    determine dielectric tensor
   LRPA    =     F    only Hartree local field effects (RPA)
   LNABLA  =     F    use nabla operator in PAW spheres
   LVEL    =     F    velocity operator in full k-point grid
   LINTERFAST=   F  fast interpolation
   KINTER  =     0    interpolate to denser k-point grid
   CSHIFT  =0.1000    complex shift for real part using Kramers Kronig
   OMEGAMAX=  -1.0    maximum frequency
   DEG_THRESHOLD= 0.2000000E-02 threshold for treating states as degnerate
   RTIME   =   -0.100 relaxation time in fs
  (WPLASMAI=    0.000 imaginary part of plasma frequency in eV, 0.658/RTIME)
   DFIELD  = 0.0000000 0.0000000 0.0000000 field for delta impulse in time
 
 Orbital magnetization related:
   ORBITALMAG=     F  switch on orbital magnetization
   LCHIMAG   =     F  perturbation theory with respect to B field
   DQ        =  0.001000  dq finite difference perturbation B field
   LLRAUG    =     F  two centre corrections for induced B field



--------------------------------------------------------------------------------------------------------


 Static calculation
 charge density and potential will be updated during run
 spin polarized calculation
 Variant of blocked Davidson
 Davidson routine will perform the subspace rotation
 perform sub-space diagonalisation
    after iterative eigenvector-optimisation
 modified Broyden-mixing scheme, WC =      100.0
 initial mixing is a Kerker type mixing with AMIX =  0.4000 and BMIX =      1.0000
 Hartree-type preconditioning will be used
 using additional bands           34
 real space projection scheme for non local part
 use partial core corrections
 calculate Harris-corrections to forces 
   (improved forces if not selfconsistent)
 use gradient corrections 
 use of overlap-Matrix (Vanderbilt PP)
 Gauss-broadening in eV      SIGMA  =   0.05


--------------------------------------------------------------------------------------------------------


  energy-cutoff  :      500.00
  volume of cell :     4400.27
      direct lattice vectors                 reciprocal lattice vectors
    15.110600471  0.000000000  0.000000000     0.066178707  0.005884289  0.000000000
    -1.080094632 12.147476386  0.000000000     0.000000000  0.082321625  0.000000000
     0.000000000  0.000000000 23.972400665     0.000000000  0.000000000  0.041714637

  length of vectors
    15.110600471 12.195400238 23.972400665     0.066439793  0.082321625  0.041714637


 
 old parameters found on file WAVECAR:
  energy-cutoff  :      500.00
  volume of cell :     4400.27
      direct lattice vectors                 reciprocal lattice vectors
    15.110600471  0.000000000  0.000000000     0.066178707  0.005884289  0.000000000
    -1.080094632 12.147476386  0.000000000     0.000000000  0.082321625  0.000000000
     0.000000000  0.000000000 23.972400665     0.000000000  0.000000000  0.041714637

  length of vectors

 
 k-points in units of 2pi/SCALE and weight: Monkhorst Pack                          
   0.01654468  0.02205148  0.00000000       0.500
  -0.01654468  0.01910933  0.00000000       0.500
 
 k-points in reciprocal lattice and weights: Monkhorst Pack                          
   0.25000000  0.25000000  0.00000000       0.500
  -0.25000000  0.25000000  0.00000000       0.500
 
 position of ions in fractional coordinates (direct lattice) 
   0.08848000  0.32082999  0.03824000
   0.33847998  0.82083000  0.03824000
   0.58847999  0.32082999  0.03824000
   0.83848001  0.82083000  0.03824000
   0.07020001  0.83354995  0.04873000
   0.32019998  0.33355000  0.04873000
   0.57020004  0.83354995  0.04873000
   0.82020001  0.33355000  0.04873000
   0.23783000  0.06778000  0.05703000
   0.48783004  0.56778001  0.05703000
   0.73783001  0.06778000  0.05703000
   0.98782997  0.56778001  0.05703000
   0.21954999  0.58051001  0.06752000
   0.46955000  0.08051000  0.06752000
   0.71954999  0.58051001  0.06752000
   0.96955000  0.08051000  0.06752000
   0.10558542  0.98222965  0.17091820
   0.35622897  0.48371383  0.17102213
   0.60791563  0.98405285  0.17125526
   0.85583207  0.48328916  0.17312987
   0.08924418  0.49463749  0.18257108
   0.33895718  0.99493710  0.18211444
   0.58904673  0.49242886  0.18188617
   0.83863068  0.99495137  0.18291890
   0.00457127  0.23012520  0.19143066
   0.25295495  0.72985072  0.19137986
   0.50388856  0.22871504  0.19078392
   0.75798641  0.72931488  0.19126604
   0.23950440  0.24173209  0.20053959
   0.48769866  0.74291897  0.19952059
   0.74127566  0.24477387  0.20338623
   0.98821492  0.73959328  0.20305810
   0.12260461  0.64091122  0.31440451
   0.37128056  0.13963974  0.31272537
   0.62192534  0.64800593  0.30413871
   0.87427826  0.13719209  0.31399564
   0.10984645  0.16074279  0.31221695
   0.35818481  0.65966287  0.31266636
   0.60603208  0.15756890  0.31344213
   0.85708337  0.66280439  0.32207013
   0.02708439  0.88852038  0.32444589
   0.27513111  0.38852817  0.32522464
   0.52410019  0.88759714  0.32452261
   0.78395896  0.38074319  0.33188822
   0.01133215  0.40646879  0.33566346
   0.25882821  0.90664892  0.33608500
   0.50700562  0.40022374  0.33377480
   0.75997383  0.90584327  0.33719923
   0.70508202  0.55243061  0.41472394
   0.02440000  0.17254999  0.00000000
   0.27439999  0.67255002  0.00000000
   0.52439999  0.17254999  0.00000000
   0.77439999  0.67255002  0.00000000
   0.21455000  0.43156997  0.01581000
   0.46455001  0.93156996  0.01581000
   0.71455008  0.43156997  0.01581000
   0.96455004  0.93156996  0.01581000
   0.20673000  0.89092997  0.02490000
   0.45673000  0.39092998  0.02490000
   0.70672997  0.89092997  0.02490000
   0.95673004  0.39092998  0.02490000
   0.19748000  0.22610000  0.04418000
   0.44748002  0.72610003  0.04418000
   0.69748003  0.22610000  0.04418000
   0.94747999  0.72610003  0.04418000
   0.11054000  0.67523994  0.06158000
   0.36054002  0.17523999  0.06158000
   0.61053998  0.67523994  0.06158000
   0.86053999  0.17523999  0.06158000
   0.10129000  0.01041000  0.08086000
   0.35129000  0.51041000  0.08086000
   0.60128998  0.01041000  0.08086000
   0.85128994  0.51041000  0.08086000
   0.09348000  0.46976000  0.08995000
   0.34348000  0.96975995  0.08995000
   0.59348001  0.46976000  0.08995000
   0.84347996  0.96975995  0.08995000
   0.03362000  0.22878000  0.10576000
   0.28361999  0.72877998  0.10576000
   0.53361997  0.22878000  0.10576000
   0.78362002  0.72877998  0.10576000
   0.04530346  0.83243040  0.13380285
   0.29609653  0.33395627  0.13341106
   0.54611325  0.83401241  0.13330074
   0.79550343  0.33275525  0.13383550
   0.23143178  0.09322426  0.14608192
   0.48145055  0.59345804  0.14653108
   0.73172725  0.09362183  0.14690507
   0.98188698  0.59333446  0.14697304
   0.22554340  0.55235601  0.16044431
   0.47621532  0.05086286  0.16063370
   0.72497654  0.55169222  0.16063451
   0.97516603  0.05216491  0.16072387
   0.21502469  0.89019319  0.18107230
   0.46442060  0.38919773  0.18017714
   0.71503802  0.88867762  0.18089727
   0.96533554  0.39016159  0.18159536
   0.13001346  0.33488557  0.19234730
   0.37885339  0.83503289  0.19310496
   0.62835899  0.33500739  0.19448967
   0.87969118  0.83619705  0.19395391
   0.11766725  0.67094179  0.21496239
   0.36710461  0.16934789  0.21270156
   0.61805821  0.67074765  0.21336486
   0.86784666  0.16949437  0.21617280
   0.11563411  0.13008665  0.22370705
   0.36394634  0.63082648  0.22398628
   0.61492839  0.13104953  0.22488377
   0.86411614  0.63168035  0.22492848
   0.04718814  0.89303830  0.23992565
   0.29739402  0.39587396  0.24058260
   0.54736414  0.89330765  0.23993378
   0.79757284  0.39257155  0.24062458
   0.06961405  0.49199875  0.26879441
   0.31538624  0.99211742  0.26836929
   0.55970904  0.49377072  0.26823053
   0.80983937  0.99313900  0.26861514
   0.25165778  0.75044196  0.28258647
   0.49712635  0.24975490  0.28096601
   0.74885166  0.74704077  0.28335739
   0.00557828  0.25118404  0.28114845
   0.24600583  0.21395477  0.29073367
   0.49398784  0.71248712  0.28988596
   0.74386687  0.21491202  0.29601039
   0.99472425  0.71076776  0.29423177
   0.23937083  0.55423386  0.32910113
   0.48587653  0.05239380  0.32677215
   0.72932762  0.54442345  0.32401498
   0.99014814  0.05552933  0.32850399
   0.14780121  0.00380711  0.33048280
   0.39846132  0.50524597  0.33569072
   0.64313407  0.00011087  0.33432776
   0.89727707  0.49977487  0.32826680
   0.13834820  0.32026903  0.35165432
   0.38612306  0.81878114  0.35169062
   0.61666905  0.30963354  0.35479467
   0.89070946  0.83756705  0.34286796
   0.13306357  0.79937531  0.35640067
   0.38056646  0.29912449  0.35509316
   0.62683172  0.79392822  0.35497539
   0.89171882  0.29226445  0.35541906
   0.06683714  0.54227928  0.37504976
   0.31640203  0.04288606  0.37460998
   0.57821400  0.54435502  0.37745010
   0.81556322  0.04175719  0.37521272
   0.79919594  0.67380158  0.40227450
   0.76067656  0.41663786  0.41588657
   0.58053615  0.32696194  0.45375271
   0.49282277  0.48564137  0.48495693
   0.42038147  0.25054516  0.52894882
   0.50079998  0.44057911  0.55438448
   0.46256929  0.17450288  0.47324809
   0.41117634  0.29543921  0.45882425
   0.58782216  0.28529475  0.52342762
   0.67645888  0.46558939  0.53890165
   0.70727466  0.65710092  0.52627988
   0.60744837  0.75791701  0.46289977
   0.56033761  0.75266024  0.53044020
   0.51583855  0.66064861  0.47761727
   0.45507686  0.25807777  0.48859929
   0.53566566  0.44380834  0.51372212
   0.54491480  0.32544274  0.49399239
   0.62277219  0.51087069  0.52209450
   0.64084349  0.62091318  0.51408071
   0.57744354  0.70130221  0.49487357
 
 position of ions in cartesian coordinates  (Angst):
   0.99045921  3.89727473  0.91670460
   4.22806168  9.97101307  0.91670460
   8.54575920  3.89727473  0.91670460
  11.78336239  9.97101307  0.91670460
   0.16045142 10.12552833  1.16817511
   4.47814847  4.05179071  1.16817511
   7.71575212 10.12552833  1.16817511
  12.03344917  4.05179071  1.16817511
   3.52054525  0.82335597  1.36714601
   6.75814868  6.89709425  1.36714601
  11.07584571  0.82335597  1.36714601
  14.31344795  6.89709425  1.36714601
   2.69052649  7.05173159  1.61861647
   7.00822400  0.97799331  1.61861647
  10.24582672  7.05173159  1.61861647
  14.56352424  0.97799331  1.61861647
   0.53455815 11.93161144  4.09731948
   4.86037694  5.87590228  4.09981099
   8.12310004 11.95375876  4.10539981
  12.41013850  5.87074370  4.15033859
   0.81427786  6.00859727  4.37666701
   4.04722032 12.08597498  4.36572042
   8.36898008  5.98176799  4.36024806
  11.59757148 12.08614826  4.38500516
  -0.17948243  2.79544047  4.58905259
   3.03399332  8.86584442  4.58783464
   7.36702486  2.77831049  4.57354850
  10.66590076  8.85933526  4.58510604
   3.35796180  2.93643491  4.80741544
   6.56699684  9.02459062  4.78298754
  10.93674136  2.97338485  4.87565613
  14.13369013  8.98419187  4.86779007
   1.16038452  7.78545395  7.53703083
   5.45944814  1.69627042  7.49677784
   8.69775758  7.87163667  7.29093491
  13.06268908  1.66653767  7.52722936
   1.48622840  1.95261920  7.48458985
   4.69988923  8.01323918  7.49536332
   8.98731935  1.91406451  7.51396031
  12.23515292  8.05140068  7.72079413
  -0.55042474 10.79328029  7.77774677
   3.73774915  4.71963681  7.79641549
   6.96077967 10.78206525  7.77958600
  11.43485201  4.62506893  7.95615737
  -0.26778912  4.93757001  8.04665895
   2.93178308 11.01349629  8.05676417
   7.22887985  4.86170846  8.00138318
  10.50526452 11.00370973  8.08347495
  10.05753533  6.71063778  9.94192839
   0.18232835  2.09604693  0.00000000
   3.41993094  8.16978550  0.00000000
   7.73762846  2.09604693  0.00000000
  10.97523117  8.16978550  0.00000000
   2.77584291  5.24248600  0.37900365
   6.01344586 11.31622410  0.37900365
  10.33114434  5.24248600  0.37900365
  13.56874656 11.31622410  0.37900365
   2.16152573 10.82255077  0.59691280
   6.47922326  4.74881268  0.59691280
   9.71682548 10.82255077  0.59691280
  14.03452396  4.74881268  0.59691280
   2.73983193  2.74654436  1.05910064
   5.97743511  8.82028293  1.05910064
  10.29513263  2.74654436  1.05910064
  13.53273487  8.82028293  1.05910064
   0.94100273  8.20246124  1.47622036
   5.25870037  2.12872362  1.47622036
   8.49630260  8.20246124  1.47622036
  12.81400013  2.12872362  1.47622036
   1.51930892  0.12645522  1.93840825
   4.75691175  6.20019341  1.93840825
   9.07460880  0.12645522  1.93840825
  12.31221104  6.20019341  1.93840825
   0.90515363  5.70639848  2.15631746
   4.14275646 11.78013610  2.15631746
   8.46045399  5.70639848  2.15631746
  11.69805622 11.78013610  2.15631746
   0.26091433  2.77909971  2.53532100
   3.49851704  8.85283756  2.53532100
   7.81621408  2.77909971  2.53532100
  11.05381775  8.85283756  2.53532100
  -0.21454111 10.11192865  3.20757542
   4.11349196  4.05672588  3.19818345
   7.35128675 10.13114610  3.19553863
  11.66112730  4.04213658  3.20835828
   3.39638209  1.13243949  3.50193435
   6.63401602  7.20901748  3.51270173
  10.95571763  1.13726894  3.52166718
  14.19604443  7.20751638  3.52329651
   2.81149937  6.70973154  3.84623525
   7.14096272  0.61785542  3.85077546
  10.35895104  6.70166819  3.85079474
  14.67900129  0.63367204  3.85293694
   2.28765925 10.81360079  4.34073773
   6.59730380  4.72777026  4.31927851
   9.84479790 10.79519036  4.33654176
  14.16538816  4.73947870  4.35327684
   1.60287328  4.06801453  4.61102660
   4.82278764 10.14354229  4.62918938
   9.13304199  4.06949430  4.66238427
  12.38948997 10.15768388  4.64954094
   1.05334220  8.15024960  5.15316455
   5.36425932  2.05714948  5.09896712
   8.61475968  8.14789121  5.11486782
  12.93061424  2.05892881  5.18218095
   1.60679498  1.58022455  5.36279508
   4.81809540  7.66294972  5.36948890
   9.15039133  1.59192110  5.39100382
  12.37503919  7.67332212  5.39207566
  -0.25152480 10.84816169  5.75159379
   4.06622083  4.80886954  5.76734244
   7.30614399 10.85143357  5.75178870
  11.62779013  4.76875360  5.76834875
   0.52050483  5.97654319  6.44364733
   3.69409471 12.05172299  6.43345610
   7.92422051  5.99806821  6.43012977
  11.16447503 12.06413252  6.43934986
   2.99215186  9.11597597  6.77427608
   7.24211867  3.03389172  6.73542980
  10.50872357  9.07466006  6.79275697
  -0.18701132  3.05125214  6.73980319
   3.48620437  2.59901055  6.96958414
   6.69489944  8.65492044  6.94926245
  11.00814970  2.61063868  7.09607969
  14.26318428  8.63403462  7.05344195
   3.01841195  6.73254268  7.88934416
   7.28529580  0.63645240  7.83351286
  10.43254943  6.61337098  7.76741702
  14.90175603  0.67454125  7.87502919
   2.22925303  0.04624673  7.92246621
   5.47527632  6.13746351  8.04731241
   9.71802224  0.00134673  8.01463894
  13.01859120  6.07100346  7.86934330
   1.74460359  3.89046045  8.42999826
   4.95019015  9.94612461  8.43086834
   8.98380608  3.76126608  8.50528008
  12.55450314 10.17432601  8.21936809
   1.14726946  9.71039268  8.54377971
   5.42750491  3.63360769  8.51243547
   8.61428612  9.64422425  8.50961229
  13.15873363  3.55027545  8.52024801
   0.42423641  6.58732476  8.99084315
   4.73470373  0.52095742  8.98030053
   8.14920579  6.61253971  9.04838513
  12.27854825  0.50724443  8.99474968
  11.34856112  8.18498884  9.64348547
  11.04427133  5.06109861  9.96979941
   8.41910000  3.97176247 10.87754166
   6.92230938  5.89931703 11.62558184
   6.08160390  3.04349139 12.68017301
   7.09152125  5.35192436 13.28992698
   6.80122012  2.11976966 11.34489288
   5.89401917  3.58884079 10.99911876
   8.57420043  3.46561122 12.54781657
   9.71881920  5.65573608 12.91876634
   9.97761358  7.98211796 12.61619214
   8.36028751  9.20677902 11.09681870
   7.65409344  9.14292252 12.71592507
   7.08106720  8.02521343 11.44963261
   6.59773617  3.13499366 11.71289784
   7.61487481  5.39115128 12.31515243
   7.88248091  3.95330799 11.84218361
   8.85867313  6.20578966 12.51585846
   9.01288503  7.54252814 12.32374881
   7.96804582  8.51905201 11.86330740
 


--------------------------------------------------------------------------------------------------------


 k-point  1 :   0.2500 0.2500 0.0000  plane waves:  111683
 k-point  2 :  -0.2500 0.2500 0.0000  plane waves:  111725

 maximum and minimum number of plane-waves per node :     18644    18587

 maximum number of plane-waves:    111725
 maximum index in each direction: 
   IXMAX=   27   IYMAX=   21   IZMAX=   43
   IXMIN=  -27   IYMIN=  -22   IZMIN=  -43


 real space projection operators:
  total allocation   :      22357.73 KBytes
  max/ min on nodes  :       3733.38       3720.94


 parallel 3D FFT for wavefunctions:
    minimum data exchange during FFTs selected (reduces bandwidth)
 parallel 3D FFT for charge:
    minimum data exchange during FFTs selected (reduces bandwidth)


 total amount of memory used by VASP MPI-rank0   174990. kBytes
=======================================================================

   base      :      30000. kBytes
   nonlr-proj:      11702. kBytes
   fftplans  :       9317. kBytes
   grid      :      26149. kBytes
   one-center:        870. kBytes
   wavefun   :      96952. kBytes
 
     INWAV:  cpu time    8.2714: real time    8.3499
 Broyden mixing: mesh for mixing (old mesh)
   NGX = 55   NGY = 45   NGZ = 87
  (NGX  =168   NGY  =140   NGZ  =280)
  gives a total of 215325 points

 initial charge density was supplied:
 number of electron    1212.0000033 magnetization      -0.0000000
 keeping initial charge density in first step


--------------------------------------------------------------------------------------------------------


 Maximum index for non-local projection operator          432
 Maximum index for augmentation-charges          478 (set IRDMAX)


--------------------------------------------------------------------------------------------------------


 First call to EWALD:  gamma=   0.108
 Maximum number of real-space cells 3x 4x 2
 Maximum number of reciprocal cells 3x 2x 4

    FEWALD:  cpu time    0.0054: real time    0.0054


--------------------------------------- Iteration      1(   1)  ---------------------------------------


    POTLOK:  cpu time    0.2218: real time    0.2235
    SETDIJ:  cpu time    0.0225: real time    0.0226
     EDDAV:  cpu time   27.7127: real time   27.7851
       DOS:  cpu time    0.0006: real time    0.0006
    CHARGE:  cpu time    1.2141: real time    1.2330
    MIXING:  cpu time    0.0066: real time    0.0069
    --------------------------------------------
      LOOP:  cpu time   29.1785: real time   29.2718

 eigenvalue-minimisations  :  6304
 total energy-change (2. order) :-0.1371199E+04  (-0.1335662E+00)
 number of electron    1212.0000033 magnetization      -0.0000000
 augmentation part       73.9567691 magnetization      -0.0000000

 Broyden mixing:
  rms(total) = 0.95035E-01    rms(broyden)= 0.94955E-01
  rms(prec ) = 0.96240E-01
  weight for this iteration     100.00

 Free energy of the ion-electron system (eV)
  ---------------------------------------------------
  alpha Z        PSCENC =      2161.47602710
  Ewald energy   TEWEN  =    387537.05517058
  -Hartree energ DENC   =   -484762.48518943
  -exchange      EXHF   =         0.00000000
  -V(xc)+E(xc)   XCENC  =      5331.64177312
  PAW double counting   =    130475.76309366  -129797.59722504
  entropy T*S    EENTRO =        -0.00000000
  eigenvalues    EBANDS =    -18647.34639882
  atomic energy  EATOM  =    106330.29339555
  Solvation  Ediel_sol  =         0.00000000
  ---------------------------------------------------
  free energy    TOTEN  =     -1371.19935329 eV

  energy without entropy =    -1371.19935329  energy(sigma->0) =    -1371.19935329


--------------------------------------------------------------------------------------------------------




--------------------------------------- Iteration      1(   2)  ---------------------------------------


    POTLOK:  cpu time    0.2137: real time    0.2156
    SETDIJ:  cpu time    0.0222: real time    0.0230
     EDDAV:  cpu time   26.7770: real time   26.8426
       DOS:  cpu time    0.0006: real time    0.0006
    CHARGE:  cpu time    1.2146: real time    1.2175
    MIXING:  cpu time    0.0062: real time    0.0063
    --------------------------------------------
      LOOP:  cpu time   28.2343: real time   28.3057

 eigenvalue-minimisations  :  6016
 total energy-change (2. order) :-0.1743516E+01  (-0.1189048E+00)
 number of electron    1212.0000033 magnetization      -0.0000000
 augmentation part       73.8793751 magnetization       0.0000000

 Broyden mixing:
  rms(total) = 0.41150E-01    rms(broyden)= 0.41032E-01
  rms(prec ) = 0.43282E-01
  weight for this iteration     100.00

 eigenvalues of (default mixing * dielectric matrix)
  average eigenvalue GAMMA=   0.7353
  0.7353

 Free energy of the ion-electron system (eV)
  ---------------------------------------------------
  alpha Z        PSCENC =      2161.47602710
  Ewald energy   TEWEN  =    387537.05517058
  -Hartree energ DENC   =   -484764.24098182
  -exchange      EXHF   =         0.00000000
  -V(xc)+E(xc)   XCENC  =      5331.74022860
  PAW double counting   =    130332.02328823  -129652.81831282
  entropy T*S    EENTRO =        -0.00000000
  eigenvalues    EBANDS =    -18648.47168496
  atomic energy  EATOM  =    106330.29339555
  Solvation  Ediel_sol  =         0.00000000
  ---------------------------------------------------
  free energy    TOTEN  =     -1372.94286955 eV

  energy without entropy =    -1372.94286955  energy(sigma->0) =    -1372.94286955


--------------------------------------------------------------------------------------------------------




--------------------------------------- Iteration      1(   3)  ---------------------------------------


    POTLOK:  cpu time    0.2115: real time    0.2141
    SETDIJ:  cpu time    0.0217: real time    0.0218
     EDDAV:  cpu time   29.2910: real time   29.3781
       DOS:  cpu time    0.0008: real time    0.0008
    CHARGE:  cpu time    1.1910: real time    1.2136
    MIXING:  cpu time    0.0177: real time    0.0180
    --------------------------------------------
      LOOP:  cpu time   30.7337: real time   30.8463

 eigenvalue-minimisations  :  6656
 total energy-change (2. order) :-0.9784791E-02  (-0.4366939E-02)
 number of electron    1212.0000033 magnetization      -0.0000000
 augmentation part       73.9118188 magnetization       0.0000000

 Broyden mixing:
  rms(total) = 0.27681E-01    rms(broyden)= 0.27663E-01
  rms(prec ) = 0.28085E-01
  weight for this iteration     100.00

 eigenvalues of (default mixing * dielectric matrix)
  average eigenvalue GAMMA=   0.6911
  0.6911  0.6911

 Free energy of the ion-electron system (eV)
  ---------------------------------------------------
  alpha Z        PSCENC =      2161.47602710
  Ewald energy   TEWEN  =    387537.05517058
  -Hartree energ DENC   =   -484761.65643963
  -exchange      EXHF   =         0.00000000
  -V(xc)+E(xc)   XCENC  =      5331.54132136
  PAW double counting   =    130358.99521257  -129679.03848815
  entropy T*S    EENTRO =        -0.00000000
  eigenvalues    EBANDS =    -18651.61885372
  atomic energy  EATOM  =    106330.29339555
  Solvation  Ediel_sol  =         0.00000000
  ---------------------------------------------------
  free energy    TOTEN  =     -1372.95265434 eV

  energy without entropy =    -1372.95265434  energy(sigma->0) =    -1372.95265434


--------------------------------------------------------------------------------------------------------




--------------------------------------- Iteration      1(   4)  ---------------------------------------


    POTLOK:  cpu time    0.2171: real time    0.2656
    SETDIJ:  cpu time    0.0233: real time    0.0234
     EDDAV:  cpu time   25.0475: real time   25.1100
       DOS:  cpu time    0.0006: real time    0.0006
    CHARGE:  cpu time    1.1989: real time    1.2017
    MIXING:  cpu time    0.0065: real time    0.0065
    --------------------------------------------
      LOOP:  cpu time   26.4939: real time   26.6078

 eigenvalue-minimisations  :  5504
 total energy-change (2. order) :-0.5179364E-04  (-0.2152106E-03)
 number of electron    1212.0000033 magnetization       0.0000000
 augmentation part       73.9071850 magnetization      -0.0000000

 Broyden mixing:
  rms(total) = 0.22377E-01    rms(broyden)= 0.22375E-01
  rms(prec ) = 0.22674E-01
  weight for this iteration     100.00

 eigenvalues of (default mixing * dielectric matrix)
  average eigenvalue GAMMA=   0.6841
  0.7700  0.7700  0.5123

 Free energy of the ion-electron system (eV)
  ---------------------------------------------------
  alpha Z        PSCENC =      2161.47602710
  Ewald energy   TEWEN  =    387537.05517058
  -Hartree energ DENC   =   -484762.33746131
  -exchange      EXHF   =         0.00000000
  -V(xc)+E(xc)   XCENC  =      5331.60991863
  PAW double counting   =    130388.33753208  -129708.33204538
  entropy T*S    EENTRO =        -0.00000000
  eigenvalues    EBANDS =    -18651.05524338
  atomic energy  EATOM  =    106330.29339555
  Solvation  Ediel_sol  =         0.00000000
  ---------------------------------------------------
  free energy    TOTEN  =     -1372.95270614 eV

  energy without entropy =    -1372.95270614  energy(sigma->0) =    -1372.95270614


--------------------------------------------------------------------------------------------------------




--------------------------------------- Iteration      1(   5)  ---------------------------------------


    POTLOK:  cpu time    0.2130: real time    0.2151
    SETDIJ:  cpu time    0.0220: real time    0.0220
     EDDAV:  cpu time   28.8791: real time   28.9636
       DOS:  cpu time    0.0006: real time    0.0006
    CHARGE:  cpu time    1.2126: real time    1.2155
    MIXING:  cpu time    0.0068: real time    0.0068
    --------------------------------------------
      LOOP:  cpu time   30.3340: real time   30.4235

 eigenvalue-minimisations  :  6592
 total energy-change (2. order) :-0.8554256E-05  (-0.1958424E-04)
 number of electron    1212.0000033 magnetization      -0.0000000
 augmentation part       73.9129752 magnetization      -0.0000000

 Broyden mixing:
  rms(total) = 0.18837E-01    rms(broyden)= 0.18837E-01
  rms(prec ) = 0.19089E-01
  weight for this iteration     100.00

 eigenvalues of (default mixing * dielectric matrix)
  average eigenvalue GAMMA=   0.7261
  0.9064  0.9064  0.5458  0.5458

 Free energy of the ion-electron system (eV)
  ---------------------------------------------------
  alpha Z        PSCENC =      2161.47602710
  Ewald energy   TEWEN  =    387537.05517058
  -Hartree energ DENC   =   -484762.37101004
  -exchange      EXHF   =         0.00000000
  -V(xc)+E(xc)   XCENC  =      5331.61415079
  PAW double counting   =    130406.16974243  -129726.12696275
  entropy T*S    EENTRO =        -0.00000000
  eigenvalues    EBANDS =    -18651.06322834
  atomic energy  EATOM  =    106330.29339555
  Solvation  Ediel_sol  =         0.00000000
  ---------------------------------------------------
  free energy    TOTEN  =     -1372.95271469 eV

  energy without entropy =    -1372.95271469  energy(sigma->0) =    -1372.95271469


--------------------------------------------------------------------------------------------------------




--------------------------------------- Iteration      1(   6)  ---------------------------------------


    POTLOK:  cpu time    0.2137: real time    0.2162
    SETDIJ:  cpu time    0.0218: real time    0.0218
     EDDAV:  cpu time   28.8468: real time   28.9611
       DOS:  cpu time    0.0006: real time    0.0006
    CHARGE:  cpu time    1.2024: real time    1.2053
    MIXING:  cpu time    0.0070: real time    0.0070
    --------------------------------------------
      LOOP:  cpu time   30.2922: real time   30.4119

 eigenvalue-minimisations  :  6592
 total energy-change (2. order) :-0.1274864E-04  (-0.2302990E-05)
 number of electron    1212.0000033 magnetization      -0.0000000
 augmentation part       73.9143587 magnetization      -0.0000000

 Broyden mixing:
  rms(total) = 0.16248E-01    rms(broyden)= 0.16248E-01
  rms(prec ) = 0.16478E-01
  weight for this iteration     100.00

 eigenvalues of (default mixing * dielectric matrix)
  average eigenvalue GAMMA=   0.8051
  1.1421  1.1421  0.5249  0.6081  0.6081

 Free energy of the ion-electron system (eV)
  ---------------------------------------------------
  alpha Z        PSCENC =      2161.47602710
  Ewald energy   TEWEN  =    387537.05517058
  -Hartree energ DENC   =   -484762.46105193
  -exchange      EXHF   =         0.00000000
  -V(xc)+E(xc)   XCENC  =      5331.62223762
  PAW double counting   =    130420.72735693  -129740.67182872
  entropy T*S    EENTRO =        -0.00000000
  eigenvalues    EBANDS =    -18650.99403456
  atomic energy  EATOM  =    106330.29339555
  Solvation  Ediel_sol  =         0.00000000
  ---------------------------------------------------
  free energy    TOTEN  =     -1372.95272744 eV

  energy without entropy =    -1372.95272744  energy(sigma->0) =    -1372.95272744


--------------------------------------------------------------------------------------------------------




--------------------------------------- Iteration      1(   7)  ---------------------------------------


    POTLOK:  cpu time    0.2134: real time    0.2140
    SETDIJ:  cpu time    0.0217: real time    0.0218
     EDDAV:  cpu time   29.3067: real time   29.3890
       DOS:  cpu time    0.0010: real time    0.0007
    CHARGE:  cpu time    1.2292: real time    1.2325
    MIXING:  cpu time    0.0075: real time    0.0075
    --------------------------------------------
      LOOP:  cpu time   30.7794: real time   30.8654

 eigenvalue-minimisations  :  6720
 total energy-change (2. order) :-0.7858456E-05  (-0.2517289E-05)
 number of electron    1212.0000033 magnetization       0.0000000
 augmentation part       73.9159679 magnetization      -0.0000000

 Broyden mixing:
  rms(total) = 0.12809E-01    rms(broyden)= 0.12809E-01
  rms(prec ) = 0.12988E-01
  weight for this iteration     100.00

 eigenvalues of (default mixing * dielectric matrix)
  average eigenvalue GAMMA=   0.8590
  1.3429  1.3429  0.6848  0.6848  0.5492  0.5492

 Free energy of the ion-electron system (eV)
  ---------------------------------------------------
  alpha Z        PSCENC =      2161.47602710
  Ewald energy   TEWEN  =    387537.05517058
  -Hartree energ DENC   =   -484762.47532658
  -exchange      EXHF   =         0.00000000
  -V(xc)+E(xc)   XCENC  =      5331.62796587
  PAW double counting   =    130439.04746463  -129758.97742840
  entropy T*S    EENTRO =        -0.00000000
  eigenvalues    EBANDS =    -18651.00000403
  atomic energy  EATOM  =    106330.29339555
  Solvation  Ediel_sol  =         0.00000000
  ---------------------------------------------------
  free energy    TOTEN  =     -1372.95273530 eV

  energy without entropy =    -1372.95273530  energy(sigma->0) =    -1372.95273530


--------------------------------------------------------------------------------------------------------




--------------------------------------- Iteration      1(   8)  ---------------------------------------


    POTLOK:  cpu time    0.2133: real time    0.2150
    SETDIJ:  cpu time    0.0218: real time    0.0218
     EDDAV:  cpu time   26.6751: real time   26.7545
       DOS:  cpu time    0.0010: real time    0.0006
    CHARGE:  cpu time    1.2273: real time    1.2306
    MIXING:  cpu time    0.0079: real time    0.0079
    --------------------------------------------
      LOOP:  cpu time   28.1462: real time   28.2304

 eigenvalue-minimisations  :  5952
 total energy-change (2. order) :-0.5098947E-05  (-0.1636694E-05)
 number of electron    1212.0000033 magnetization      -0.0000000
 augmentation part       73.9173909 magnetization      -0.0000000

 Broyden mixing:
  rms(total) = 0.10598E-01    rms(broyden)= 0.10598E-01
  rms(prec ) = 0.10738E-01
  weight for this iteration     100.00

 eigenvalues of (default mixing * dielectric matrix)
  average eigenvalue GAMMA=   0.9053
  1.5612  1.5612  0.7616  0.7616  0.5291  0.5812  0.5812

 Free energy of the ion-electron system (eV)
  ---------------------------------------------------
  alpha Z        PSCENC =      2161.47602710
  Ewald energy   TEWEN  =    387537.05517058
  -Hartree energ DENC   =   -484762.48005159
  -exchange      EXHF   =         0.00000000
  -V(xc)+E(xc)   XCENC  =      5331.63081422
  PAW double counting   =    130450.98217426  -129770.90291514
  entropy T*S    EENTRO =        -0.00000000
  eigenvalues    EBANDS =    -18651.00735537
  atomic energy  EATOM  =    106330.29339555
  Solvation  Ediel_sol  =         0.00000000
  ---------------------------------------------------
  free energy    TOTEN  =     -1372.95274040 eV

  energy without entropy =    -1372.95274040  energy(sigma->0) =    -1372.95274040


--------------------------------------------------------------------------------------------------------




--------------------------------------- Iteration      1(   9)  ---------------------------------------


    POTLOK:  cpu time    0.2130: real time    0.2153
    SETDIJ:  cpu time    0.0216: real time    0.0217
     EDDAV:  cpu time   19.7813: real time   19.8451
       DOS:  cpu time    0.0010: real time    0.0006
    CHARGE:  cpu time    1.2160: real time    1.2192
    MIXING:  cpu time    0.0089: real time    0.0089
    --------------------------------------------
      LOOP:  cpu time   21.2417: real time   21.3108

 eigenvalue-minimisations  :  3968
 total energy-change (2. order) :-0.4225687E-05  (-0.3820139E-06)
 number of electron    1212.0000033 magnetization       0.0000000
 augmentation part       73.9182352 magnetization      -0.0000000

 Broyden mixing:
  rms(total) = 0.91640E-02    rms(broyden)= 0.91640E-02
  rms(prec ) = 0.92883E-02
  weight for this iteration     100.00

 eigenvalues of (default mixing * dielectric matrix)
  average eigenvalue GAMMA=   1.0557
  2.0627  2.0627  0.9176  0.9176  0.6631  0.6631  0.5795  0.5795

 Free energy of the ion-electron system (eV)
  ---------------------------------------------------
  alpha Z        PSCENC =      2161.47602710
  Ewald energy   TEWEN  =    387537.05517058
  -Hartree energ DENC   =   -484762.47743350
  -exchange      EXHF   =         0.00000000
  -V(xc)+E(xc)   XCENC  =      5331.63200766
  PAW double counting   =    130458.80920641  -129778.72816911
  entropy T*S    EENTRO =        -0.00000000
  eigenvalues    EBANDS =    -18651.01294931
  atomic energy  EATOM  =    106330.29339555
  Solvation  Ediel_sol  =         0.00000000
  ---------------------------------------------------
  free energy    TOTEN  =     -1372.95274462 eV

  energy without entropy =    -1372.95274462  energy(sigma->0) =    -1372.95274462


--------------------------------------------------------------------------------------------------------




--------------------------------------- Iteration      1(  10)  ---------------------------------------


    POTLOK:  cpu time    0.2125: real time    0.2132
    SETDIJ:  cpu time    0.0217: real time    0.0218
     EDDAV:  cpu time   28.2137: real time   28.3048
       DOS:  cpu time    0.0007: real time    0.0006
    CHARGE:  cpu time    1.2280: real time    1.2309
    MIXING:  cpu time    0.0084: real time    0.0084
    --------------------------------------------
      LOOP:  cpu time   29.6849: real time   29.7797

 eigenvalue-minimisations  :  6400
 total energy-change (2. order) :-0.5398615E-05  (-0.2531390E-05)
 number of electron    1212.0000033 magnetization       0.0000000
 augmentation part       73.9195550 magnetization      -0.0000000

 Broyden mixing:
  rms(total) = 0.54737E-02    rms(broyden)= 0.54737E-02
  rms(prec ) = 0.55508E-02
  weight for this iteration     100.00

 eigenvalues of (default mixing * dielectric matrix)
  average eigenvalue GAMMA=   1.1230
  2.4098  2.4098  1.0578  1.0578  0.6895  0.6895  0.5867  0.6031  0.6031

 Free energy of the ion-electron system (eV)
  ---------------------------------------------------
  alpha Z        PSCENC =      2161.47602710
  Ewald energy   TEWEN  =    387537.05517058
  -Hartree energ DENC   =   -484762.46686987
  -exchange      EXHF   =         0.00000000
  -V(xc)+E(xc)   XCENC  =      5331.63542811
  PAW double counting   =    130478.37039381  -129798.28095629
  entropy T*S    EENTRO =        -0.00000000
  eigenvalues    EBANDS =    -18651.03533900
  atomic energy  EATOM  =    106330.29339555
  Solvation  Ediel_sol  =         0.00000000
  ---------------------------------------------------
  free energy    TOTEN  =     -1372.95275002 eV

  energy without entropy =    -1372.95275002  energy(sigma->0) =    -1372.95275002


[...]
   -.242E+02 0.691E+01 -.166E+04   0.258E+02 -.830E+01 0.167E+04   -.150E+01 0.139E+01 -.110E+02   -.411E-03 0.261E-03 -.186E-03
   0.802E+02 0.508E+02 -.156E+04   -.787E+02 -.528E+02 0.157E+04   -.151E+01 0.210E+01 -.111E+02   -.361E-03 0.102E-03 -.216E-03
   0.360E+02 -.935E+02 -.154E+04   -.330E+02 0.929E+02 0.155E+04   -.299E+01 0.645E+00 -.115E+02   -.125E-03 0.189E-03 -.324E-03
   -.121E+03 0.874E+02 -.160E+04   0.124E+03 -.892E+02 0.161E+04   -.295E+01 0.176E+01 -.117E+02   -.697E-04 0.929E-04 0.593E-04
   -.543E+02 -.458E+02 -.180E+04   0.542E+02 0.495E+02 0.182E+04   0.135E+00 -.369E+01 -.184E+02   -.167E-03 -.184E-03 -.554E-03
   0.487E+02 -.154E+02 -.178E+04   -.485E+02 0.193E+02 0.180E+04   -.205E+00 -.384E+01 -.180E+02   -.129E-03 0.279E-05 -.562E-03
   0.236E+03 -.421E+02 -.151E+04   -.247E+03 0.440E+02 0.152E+04   0.102E+02 -.190E+01 -.669E+01   -.880E-04 -.585E-04 -.439E-03
   -.421E+02 -.617E+02 -.178E+04   0.421E+02 0.663E+02 0.180E+04   -.321E-01 -.458E+01 -.183E+02   0.179E-03 -.924E-04 -.553E-03
   -.214E+03 -.239E+03 -.172E+04   0.221E+03 0.252E+03 0.173E+04   -.710E+01 -.133E+02 -.946E+01   0.348E-03 -.217E-03 -.353E-03
   -.207E+03 0.250E+03 -.174E+04   0.215E+03 -.264E+03 0.175E+04   -.786E+01 0.144E+02 -.126E+02   0.147E-03 0.226E-03 -.425E-03
   -.229E+02 0.328E+02 -.210E+03   0.257E+02 -.328E+02 0.205E+03   -.279E+01 0.504E-01 0.481E+01   0.121E-04 -.148E-04 0.144E-04
   0.719E+02 -.249E+02 -.201E+03   -.754E+02 0.274E+02 0.198E+03   0.352E+01 -.251E+01 0.345E+01   -.135E-04 0.256E-05 0.141E-04
   0.484E+02 0.241E+02 -.238E+03   -.510E+02 -.246E+02 0.242E+03   0.262E+01 0.513E+00 -.477E+01   -.910E-05 -.432E-05 0.142E-04
   0.489E+02 0.182E+01 -.230E+03   -.515E+02 -.202E+01 0.235E+03   0.260E+01 0.201E+00 -.472E+01   0.238E-05 0.505E-06 0.181E-04
   0.466E+01 0.696E+02 -.221E+03   -.373E+01 -.748E+02 0.219E+03   -.925E+00 0.513E+01 0.187E+01   -.732E-05 -.205E-04 -.582E-06
   0.611E+02 -.371E+01 -.219E+03   -.647E+02 0.585E+01 0.215E+03   0.360E+01 -.215E+01 0.362E+01   -.268E-04 -.685E-05 0.400E-05
   -.412E+02 0.523E+02 -.237E+03   0.447E+02 -.548E+02 0.240E+03   -.347E+01 0.249E+01 -.344E+01   0.734E-05 -.457E-05 0.194E-04
   -.597E+02 0.341E+02 -.227E+03   0.641E+02 -.370E+02 0.229E+03   -.447E+01 0.289E+01 -.214E+01   0.335E-05 0.150E-05 0.226E-04
   -.625E+02 -.433E+02 -.230E+03   0.674E+02 0.456E+02 0.232E+03   -.493E+01 -.230E+01 -.160E+01   0.143E-04 0.354E-05 0.222E-04
   -.448E+00 -.637E+02 -.218E+03   0.231E+01 0.672E+02 0.214E+03   -.186E+01 -.351E+01 0.390E+01   0.474E-05 0.183E-04 0.219E-04
   0.314E+02 -.536E+02 -.233E+03   -.330E+02 0.567E+02 0.237E+03   0.160E+01 -.312E+01 -.419E+01   0.274E-05 0.270E-05 0.182E-04
   0.754E+02 -.618E+01 -.215E+03   -.800E+02 0.373E+01 0.213E+03   0.457E+01 0.246E+01 0.219E+01   -.136E-04 -.501E-05 0.122E-04
   0.119E+03 0.117E+03 -.900E+03   -.119E+03 -.118E+03 0.900E+03   0.361E+00 0.191E+00 0.292E+00   -.425E-04 -.480E-04 0.545E-04
   0.124E+03 0.685E+01 -.876E+03   -.126E+03 -.868E+01 0.875E+03   0.133E+01 0.182E+01 0.875E+00   0.411E-06 0.139E-04 0.114E-03
   -.148E+02 0.121E+03 -.891E+03   0.150E+02 -.122E+03 0.890E+03   -.256E+00 0.104E+01 0.694E+00   0.129E-04 -.268E-04 0.973E-04
   -.420E+02 0.433E+02 -.908E+03   0.408E+02 -.444E+02 0.910E+03   0.118E+01 0.116E+01 -.158E+01   0.177E-04 -.102E-04 0.168E-03
   -.463E+02 -.125E+03 -.915E+03   0.455E+02 0.127E+03 0.917E+03   0.785E+00 -.112E+01 -.142E+01   0.227E-04 -.356E-05 0.181E-03
   0.109E+03 -.151E+03 -.894E+03   -.110E+03 0.152E+03 0.893E+03   0.149E+01 -.968E+00 0.868E+00   0.648E-06 0.770E-05 0.963E-04
 -----------------------------------------------------------------------------------------------
   0.209E+02 0.196E+02 0.798E+02   0.469E-12 0.000E+00 0.433E-10   -.207E+02 -.198E+02 -.799E+02   0.228E-02 0.111E-02 0.189E-01
 
 
 POSITION                                       TOTAL-FORCE (eV/Angst)
 -----------------------------------------------------------------------------------
      0.99046      3.89727      0.91670        -1.500895     -1.859996     -0.656921
      4.22806      9.97101      0.91670        -1.504336     -1.885654     -0.720732
      8.54576      3.89727      0.91670        -1.339503     -1.926084     -0.757389
     11.78336      9.97101      0.91670        -1.351313     -1.842237     -0.694968
      0.16045     10.12553      1.16818        -0.268248      1.645192      0.466929
      4.47815      4.05179      1.16818        -0.207642      1.715439      0.213202
      7.71575     10.12553      1.16818        -0.089911      1.762880      0.165345
     12.03345      4.05179      1.16818        -0.135538      1.816480      0.520620
      3.52055      0.82336      1.36715        -0.867452     -0.883439      1.570468
      6.75815      6.89709      1.36715        -0.839137     -0.873153      1.547849
     11.07585      0.82336      1.36715        -0.741504     -0.834509      1.735084
     14.31345      6.89709      1.36715        -0.949201     -0.945829      1.813745
      2.69053      7.05173      1.61862         1.449787      0.472917     -2.468260
      7.00822      0.97799      1.61862         1.585580      0.422331     -2.462616
     10.24583      7.05173      1.61862         1.757986      0.417281     -2.412723
     14.56352      0.97799      1.61862         1.510435      0.492818     -2.412188
      0.53456     11.93161      4.09732        -0.000520     -0.001409     -0.002962
      4.86038      5.87590      4.09981         0.004840      0.002035      0.001844
      8.12310     11.95376      4.10540        -0.002490     -0.003104     -0.000991
     12.41014      5.87074      4.15034        -0.006261     -0.000785      0.005516
      0.81428      6.00860      4.37667         0.001019     -0.001956      0.004101
      4.04722     12.08597      4.36572        -0.000062      0.000549     -0.000422
      8.36898      5.98177      4.36025        -0.002268      0.007259     -0.005473
     11.59757     12.08615      4.38501         0.001029     -0.003143     -0.005240
     -0.17948      2.79544      4.58905        -0.004939     -0.004343     -0.004619
      3.03399      8.86584      4.58783         0.004562     -0.003267     -0.000215
      7.36702      2.77831      4.57355        -0.000964      0.000959      0.002313
     10.66590      8.85934      4.58511        -0.005251     -0.003511      0.000143
      3.35796      2.93643      4.80742        -0.003716     -0.001023      0.002126
      6.56700      9.02459      4.78299         0.001839     -0.001419     -0.005840
     10.93674      2.97338      4.87566        -0.003307      0.001580     -0.005811
     14.13369      8.98419      4.86779        -0.003644      0.000068      0.000041
      1.16038      7.78545      7.53703        -0.002062      0.003653      0.001003
      5.45945      1.69627      7.49678         0.000472     -0.000844     -0.002728
      8.69776      7.87164      7.29093         0.000930      0.000912     -0.001071
     13.06269      1.66654      7.52723         0.004465     -0.002277     -0.006480
      1.48623      1.95262      7.48459         0.004605      0.002285     -0.002559
      4.69989      8.01324      7.49536        -0.003275     -0.001391     -0.010689
      8.98732      1.91406      7.51396        -0.003944      0.002904     -0.001228
     12.23515      8.05140      7.72079        -0.007252      0.003033     -0.001648
     -0.55042     10.79328      7.77775         0.002048      0.001710     -0.000196
      3.73775      4.71964      7.79642        -0.001911      0.002172     -0.001625
      6.96078     10.78207      7.77959         0.001669     -0.003513     -0.004087
     11.43485      4.62507      7.95616         0.006198      0.000103     -0.005097
     -0.26779      4.93757      8.04666         0.002650      0.002036     -0.002301
      2.93178     11.01350      8.05676        -0.000075      0.003068     -0.002634
      7.22888      4.86171      8.00138        -0.001147      0.001166     -0.001226
     10.50526     11.00371      8.08347        -0.001686     -0.006656     -0.000247
     10.05754      6.71064      9.94193         0.011412     -0.000803     -0.001710
      0.18233      2.09605      0.00000         0.272020      0.972075      1.241797
      3.41993      8.16979      0.00000         0.293023      0.997840      1.242904
      7.73763      2.09605      0.00000         0.257787      0.982130      1.258846
     10.97523      8.16979      0.00000         0.237603      0.984862      1.254780
      2.77584      5.24249      0.37900         0.001249     -0.931087      0.564643
      6.01345     11.31622      0.37900        -0.041002     -0.925667      0.568948
     10.33114      5.24249      0.37900        -0.122770     -0.922989      0.555242
     13.56875     11.31622      0.37900        -0.048918     -0.926841      0.552702
      2.16153     10.82255      0.59691         0.418047      1.205619     -0.203357
      6.47922      4.74881      0.59691         0.397536      1.218802     -0.204067
      9.71683     10.82255      0.59691         0.341523      1.183823     -0.210999
     14.03452      4.74881      0.59691         0.403081      1.175617     -0.232940
      2.73983      2.74654      1.05910         1.191225     -1.029758     -0.445249
      5.97744      8.82028      1.05910         1.162975     -1.054249     -0.420613
     10.29513      2.74654      1.05910         1.099893     -1.029194     -0.471848
     13.53273      8.82028      1.05910         1.134623     -1.013862     -0.476119
      0.94100      8.20246      1.47622        -1.096548     -0.306775     -0.922196
      5.25870      2.12872      1.47622        -1.113458     -0.303665     -0.898033
      8.49630      8.20246      1.47622        -1.196209     -0.319763     -0.903635
     12.81400      2.12872      1.47622        -1.148843     -0.324442     -0.919777
      1.51931      0.12646      1.93841         0.352397     -0.095854      0.204685
      4.75691      6.20019      1.93841         0.417751     -0.016672      0.197070
      9.07461      0.12646      1.93841         0.412797     -0.031090      0.237159
     12.31221      6.20019      1.93841         0.360051     -0.070809      0.337752
      0.90515      5.70640      2.15632        -0.355436      0.323278      0.096714
      4.14276     11.78014      2.15632        -0.347720      0.318087      0.123766
      8.46045      5.70640      2.15632        -0.418990      0.294056      0.167506
     11.69806     11.78014      2.15632        -0.407359      0.317265      0.165054
      0.26091      2.77910      2.53532         0.221561      0.392224      0.485034
      3.49852      8.85284      2.53532         0.229970      0.422863      0.590529
      7.81621      2.77910      2.53532         0.240073      0.397870      0.458963
     11.05382      8.85284      2.53532         0.256865      0.392471      0.511984
     -0.21454     10.11193      3.20758         0.000831      0.004879      0.003081
      4.11349      4.05673      3.19818         0.006099      0.004637     -0.011146
      7.35129     10.13115      3.19554        -0.005239      0.002330      0.011634
     11.66113      4.04214      3.20836         0.002111      0.007150     -0.008440
      3.39638      1.13244      3.50193        -0.005381     -0.003639      0.009102
      6.63402      7.20902      3.51270        -0.002638      0.003410      0.003989
     10.95572      1.13727      3.52167        -0.009271      0.004943     -0.000514
     14.19604      7.20752      3.52330         0.005039      0.003913     -0.014459
      2.81150      6.70973      3.84624        -0.001851     -0.007496     -0.005833
      7.14096      0.61786      3.85078        -0.001125     -0.006231     -0.007221
     10.35895      6.70167      3.85079         0.000668     -0.002092      0.005420
     14.67900      0.63367      3.85294        -0.004340      0.007759     -0.005649
      2.28766     10.81360      4.34074        -0.009646      0.001863      0.006861
      6.59730      4.72777      4.31928        -0.009904      0.005295     -0.004001
      9.84480     10.79519      4.33654         0.001005      0.003734      0.000995
     14.16539      4.73948      4.35328        -0.002957     -0.007072      0.004394
      1.60287      4.06801      4.61103        -0.000808      0.001659      0.004542
      4.82279     10.14354      4.62919        -0.000143     -0.004432      0.004033
      9.13304      4.06949      4.66238        -0.001385     -0.015095     -0.004096
     12.38949     10.15768      4.64954         0.002790      0.004422      0.008917
      1.05334      8.15025      5.15316         0.008254      0.000223      0.004322
      5.36426      2.05715      5.09897         0.004618      0.001963      0.007879
      8.61476      8.14789      5.11487         0.010391     -0.011937     -0.007125
     12.93061      2.05893      5.18218         0.003754     -0.002653      0.004344
      1.60679      1.58022      5.36280        -0.006445      0.002874      0.001482
      4.81810      7.66295      5.36949         0.006632     -0.001416      0.001952
      9.15039      1.59192      5.39100        -0.005361     -0.003658      0.000076
     12.37504      7.67332      5.39208         0.000787     -0.001217      0.003541
     -0.25152     10.84816      5.75159         0.005939      0.005913      0.000009
      4.06622      4.80887      5.76734        -0.001807     -0.002371      0.002760
      7.30614     10.85143      5.75179        -0.000961      0.010371     -0.000808
     11.62779      4.76875      5.76835         0.006220     -0.007802      0.003494
      0.52050      5.97654      6.44365         0.005357      0.004075     -0.004635
      3.69409     12.05172      6.43346        -0.001420      0.004069     -0.002897
      7.92422      5.99807      6.43013         0.008277      0.001435      0.008080
     11.16448     12.06413      6.43935         0.006599      0.002383     -0.007380
      2.99215      9.11598      6.77428         0.006869     -0.002817      0.006701
      7.24212      3.03389      6.73543         0.002828      0.004024      0.003663
     10.50872      9.07466      6.79276         0.001131      0.002101      0.008637
     -0.18701      3.05125      6.73980        -0.000145     -0.002478      0.003904
      3.48620      2.59901      6.96958         0.004069     -0.003256      0.015570
      6.69490      8.65492      6.94926        -0.006875      0.005528      0.000043
     11.00815      2.61064      7.09608         0.001208      0.000499      0.001176
     14.26318      8.63403      7.05344        -0.003676     -0.001521      0.002385
      3.01841      6.73254      7.88934         0.000347     -0.001454      0.006625
      7.28530      0.63645      7.83351         0.002640      0.004653      0.002695
     10.43255      6.61337      7.76742         0.003982     -0.002500     -0.004851
     14.90176      0.67454      7.87503         0.004903      0.005576      0.005377
      2.22925      0.04625      7.92247        -0.001589      0.003867      0.000762
      5.47528      6.13746      8.04731         0.004837     -0.000633      0.010155
      9.71802      0.00135      8.01464         0.002886      0.006100     -0.005709
     13.01859      6.07100      7.86934        -0.009418     -0.007894     -0.006230
      1.74460      3.89046      8.43000         0.004151     -0.001272     -0.001460
      4.95019      9.94612      8.43087         0.001885      0.002038      0.011077
      8.98381      3.76127      8.50528         0.001113     -0.015352     -0.000126
     12.55450     10.17433      8.21937        -0.002272      0.014925      0.003809
      1.14727      9.71039      8.54378         0.008353      0.002084     -0.004197
      5.42750      3.63361      8.51244         0.007694      0.003572      0.011838
      8.61429      9.64422      8.50961        -0.003216     -0.003577     -0.010061
     13.15873      3.55028      8.52025        -0.003806      0.001502     -0.003910
      0.42424      6.58732      8.99084        -0.001801      0.004197      0.001457
      4.73470      0.52096      8.98030         0.003221     -0.005975     -0.007593
      8.14921      6.61254      9.04839        -0.007360     -0.001713     -0.002963
     12.27855      0.50724      8.99475        -0.003680      0.009454     -0.004286
     11.34856      8.18499      9.64349         0.003506     -0.004722     -0.013174
     11.04427      5.06110      9.96980        -0.002505     -0.011548      0.002701
      8.41910      3.97176     10.87754         0.010270     -0.003167      0.012622
      6.92231      5.89932     11.62558         0.001467      0.000403     -0.006055
      6.08160      3.04349     12.68017         0.000282      0.001394      0.007598
      7.09152      5.35192     13.28993         0.000944      0.006474      0.001360
      6.80122      2.11977     11.34489         0.005538     -0.005744      0.005904
      5.89402      3.58884     10.99912         0.010275     -0.001489      0.003466
      8.57420      3.46561     12.54782         0.005566     -0.000908      0.015292
      9.71882      5.65574     12.91877         0.010045     -0.001143      0.005424
      9.97761      7.98212     12.61619        -0.007112     -0.004269     -0.006525
      8.36029      9.20678     11.09682         0.000906     -0.007433     -0.006053
      7.65409      9.14292     12.71593         0.005985      0.010145     -0.001921
      7.08107      8.02521     11.44963         0.003189      0.006476      0.006234
      6.59774      3.13499     11.71290         0.003664      0.004740      0.002798
      7.61487      5.39115     12.31515         0.006336     -0.002235      0.005787
      7.88248      3.95331     11.84218        -0.003545     -0.000618      0.013148
      8.85867      6.20579     12.51586        -0.004070      0.009289      0.000607
      9.01289      7.54253     12.32375         0.009003      0.003320      0.002936
      7.96805      8.51905     11.86331         0.000419      0.002519     -0.008013
 -----------------------------------------------------------------------------------
    total drift:                                0.178608     -0.277090     -0.014586


--------------------------------------------------------------------------------------------------------



  FREE ENERGIE OF THE ION-ELECTRON SYSTEM (eV)
  ---------------------------------------------------
  free  energy   TOTEN  =     -1392.25058025 eV

  energy  without entropy=    -1392.25058025  energy(sigma->0) =    -1392.25058025
 


--------------------------------------------------------------------------------------------------------


    POTLOK:  cpu time    0.2351: real time    0.2357


--------------------------------------------------------------------------------------------------------


     LOOP+:  cpu time  375.9400: real time  377.1443
    4ORBIT:  cpu time    0.0000: real time    0.0000

 total amount of memory used by VASP MPI-rank0   174990. kBytes
=======================================================================

   base      :      30000. kBytes
   nonlr-proj:      11702. kBytes
   fftplans  :       9317. kBytes
   grid      :      26149. kBytes
   one-center:        870. kBytes
   wavefun   :      96952. kBytes
 
  
  
 General timing and accounting informations for this job:
 ========================================================
  
                  Total CPU time used (sec):      392.303
                            User time (sec):      376.395
                          System time (sec):       15.908
                         Elapsed time (sec):      393.739
  
                   Maximum memory used (kb):      436020.
                   Average memory used (kb):           0.
  
                          Minor page faults:        85262
                          Major page faults:            0
                 Voluntary context switches:         1048
