       N       E                     dE             d eps       ncg     rms          rms(c)
DAV:   1    -0.137125603755E+04   -0.13713E+04   -0.13398E+00  6304   0.980E-01    0.953E-01
DAV:   2    -0.137300112961E+04   -0.17451E+01   -0.11922E+00  6304   0.951E-01    0.410E-01
DAV:   3    -0.137301092396E+04   -0.97944E-02   -0.43098E-02  6912   0.229E-01    0.278E-01
DAV:   4    -0.137301097626E+04   -0.52293E-04   -0.21546E-03  5632   0.573E-02    0.225E-01
DAV:   5    -0.137301098511E+04   -0.88488E-05   -0.19511E-04  6912   0.180E-02    0.189E-01
DAV:   6    -0.137301099692E+04   -0.11817E-04   -0.22303E-05  7232   0.701E-03    0.163E-01
DAV:   7    -0.137301100356E+04   -0.66365E-05   -0.23188E-05  6656   0.817E-03    0.130E-01
DAV:   8    -0.137301100880E+04   -0.52410E-05   -0.18147E-05  6896   0.673E-03    0.105E-01
DAV:   9    -0.137301101306E+04   -0.42608E-05   -0.51698E-06  7200   0.337E-03    0.898E-02
DAV:  10    -0.137301101843E+04   -0.53705E-05   -0.15800E-05  6592   0.679E-03    0.579E-02
DAV:  11    -0.137301102197E+04   -0.35333E-05   -0.35128E-05  6432   0.967E-03    0.177E-02
DAV:  12    -0.137301102311E+04   -0.11492E-05   -0.52761E-06  7040   0.296E-03    0.101E-02
DAV:  13    -0.137301102329E+04   -0.17941E-06   -0.75323E-07  6368   0.143E-03    0.412E-03
DAV:  14    -0.137301102330E+04   -0.48021E-08   -0.33294E-07  7152   0.744E-04    0.229E-03
DAV:  15    -0.137301102323E+04    0.64872E-07   -0.21197E-08  3168   0.302E-04    0.944E-04
DAV:  16    -0.137301102320E+04    0.34546E-07   -0.46029E-08  4288   0.269E-04    0.467E-04
DAV:  17    -0.137301102317E+04    0.28173E-07   -0.40327E-09  3008   0.112E-04    0.416E-04
DAV:  18    -0.137301102316E+04    0.67230E-08   -0.24120E-09  3072   0.897E-05
   1 F= -.13921314E+04 E0= -.13921314E+04  d E =-.139213E+04  mag=     0.0000
       N       E                     dE             d eps       ncg     rms          rms(c)
DAV:   1    -0.137300997630E+04    0.10469E-02   -0.58062E-01  5120   0.883E-01    0.127E-01
DAV:   2    -0.137301028326E+04   -0.30696E-03   -0.49981E-03  5600   0.830E-02    0.928E-02
DAV:   3    -0.137301020569E+04    0.77571E-04   -0.58927E-04  6144   0.452E-02    0.356E-02
DAV:   4    -0.137301021397E+04   -0.82805E-05   -0.13366E-04  6112   0.167E-02    0.172E-02
DAV:   5    -0.137301020994E+04    0.40273E-05   -0.43654E-05  6144   0.104E-02    0.762E-03
DAV:   6    -0.137301020921E+04    0.72933E-06   -0.54224E-06  6112   0.354E-03    0.412E-03
DAV:   7    -0.137301020921E+04    0.36962E-08   -0.36029E-06  6336   0.270E-03    0.215E-03
DAV:   8    -0.137301020920E+04    0.45111E-08   -0.47871E-07  5920   0.115E-03    0.127E-03
DAV:   9    -0.137301020933E+04   -0.12561E-06   -0.25269E-07  5184   0.709E-04    0.608E-04
DAV:  10    -0.137301020944E+04   -0.11649E-06   -0.74194E-08  5248   0.495E-04    0.582E-04
DAV:  11    -0.137301020957E+04   -0.12308E-06   -0.48152E-08  4736   0.368E-04    0.260E-04
DAV:  12    -0.137301020968E+04   -0.11529E-06   -0.17868E-08  3744   0.221E-04    0.133E-04
DAV:  13    -0.137301020978E+04   -0.10199E-06   -0.67141E-09  3392   0.137E-04    0.143E-04
DAV:  14    -0.137301020986E+04   -0.80210E-07   -0.40452E-09  3072   0.990E-05    0.904E-05
DAV:  15    -0.137301020992E+04   -0.55996E-07   -0.38796E-09  3104   0.852E-05    0.465E-05
DAV:  16    -0.137301020994E+04   -0.25495E-07   -0.13481E-09  3136   0.521E-05    0.414E-05
DAV:  17    -0.137301020997E+04   -0.21624E-07   -0.10624E-09  3072   0.484E-05    0.255E-05
DAV:  18    -0.137301020997E+04   -0.61409E-08    0.48895E-11  3072   0.316E-05
   2 F= -.13921307E+04 E0= -.13921307E+04  d E =0.611691E-03  mag=    -0.0000
       N       E                     dE             d eps       ncg     rms          rms(c)
DAV:   1    -0.137301014149E+04    0.68474E-04   -0.11603E+00  5120   0.124E+00    0.146E-01
DAV:   2    -0.137301092721E+04   -0.78572E-03   -0.10593E-02  5504   0.112E-01    0.947E-02
DAV:   3    -0.137301082575E+04    0.10146E-03   -0.87698E-04  6400   0.418E-02    0.500E-02
DAV:   4    -0.137301081272E+04    0.13035E-04   -0.24678E-04  5632   0.245E-02    0.183E-02
DAV:   5    -0.137301080862E+04    0.40986E-05   -0.69919E-05  5504   0.130E-02    0.102E-02
DAV:   6    -0.137301080910E+04   -0.48208E-06   -0.15137E-05  6272   0.434E-03    0.635E-03
DAV:   7    -0.137301080863E+04    0.46760E-06   -0.34377E-06  6592   0.271E-03    0.338E-03
DAV:   8    -0.137301080876E+04   -0.12116E-06   -0.13755E-06  6272   0.177E-03    0.229E-03
DAV:   9    -0.137301080879E+04   -0.36962E-07   -0.50590E-07  6400   0.100E-03    0.874E-04
DAV:  10    -0.137301080898E+04   -0.19012E-06   -0.97521E-08  4928   0.456E-04    0.378E-04
DAV:  11    -0.137301080917E+04   -0.18851E-06   -0.33823E-08  4640   0.302E-04    0.344E-04
DAV:  12    -0.137301080934E+04   -0.16563E-06   -0.20361E-08  4032   0.256E-04    0.142E-04
DAV:  13    -0.137301080947E+04   -0.12854E-06   -0.10916E-08  3520   0.169E-04    0.116E-04
DAV:  14    -0.137301080955E+04   -0.89582E-07   -0.44464E-09  3264   0.977E-05    0.795E-05
DAV:  15    -0.137301080963E+04   -0.74477E-07   -0.35413E-09  3168   0.817E-05    0.380E-05
DAV:  16    -0.137301080968E+04   -0.46522E-07   -0.23357E-09  3104   0.578E-05    0.304E-05
DAV:  17    -0.137301080969E+04   -0.15949E-07   -0.51090E-10  3136   0.364E-05    0.234E-05
DAV:  18    -0.137301080970E+04   -0.10856E-07   -0.29004E-10  3104   0.328E-05    0.109E-05
DAV:  19    -0.137301080971E+04   -0.39145E-08    0.11949E-10  3136   0.234E-05
   3 F= -.13921310E+04 E0= -.13921310E+04  d E =-.304604E-03  mag=    -0.0000
       N       E                     dE             d eps       ncg     rms          rms(c)
DAV:   1    -0.137300996057E+04    0.84913E-03   -0.11563E+00  5120   0.124E+00    0.134E-01
DAV:   2    -0.137301058568E+04   -0.62511E-03   -0.10113E-02  5632   0.116E-01    0.958E-02
DAV:   3    -0.137301045539E+04    0.13029E-03   -0.10893E-03  6368   0.494E-02    0.462E-02
DAV:   4    -0.137301045382E+04    0.15698E-05   -0.19922E-04  5920   0.205E-02    0.196E-02
DAV:   5    -0.137301044941E+04    0.44114E-05   -0.49869E-05  5536   0.123E-02    0.873E-03
DAV:   6    -0.137301044913E+04    0.27954E-06   -0.68007E-06  5728   0.372E-03    0.447E-03
DAV:   7    -0.137301044899E+04    0.14562E-06   -0.36715E-06  6080   0.301E-03    0.271E-03
DAV:   8    -0.137301044895E+04    0.39072E-07   -0.75977E-07  6512   0.140E-03    0.146E-03
DAV:   9    -0.137301044901E+04   -0.57073E-07   -0.30412E-07  5936   0.108E-03    0.701E-04
DAV:  10    -0.137301044918E+04   -0.17001E-06   -0.13594E-07  5728   0.765E-04    0.604E-04
DAV:  11    -0.137301044936E+04   -0.18417E-06   -0.83459E-08  5344   0.572E-04    0.278E-04
DAV:  12    -0.137301044961E+04   -0.25293E-06   -0.37290E-08  4992   0.507E-04    0.226E-04
DAV:  13    -0.137301044977E+04   -0.15690E-06   -0.41668E-08  4704   0.298E-04    0.180E-04
DAV:  14    -0.137301044988E+04   -0.10936E-06   -0.72608E-09  3680   0.119E-04    0.115E-04
DAV:  15    -0.137301045001E+04   -0.13124E-06   -0.49033E-09  3296   0.954E-05    0.622E-05
DAV:  16    -0.137301045008E+04   -0.68016E-07   -0.26740E-09  3200   0.654E-05    0.447E-05
DAV:  17    -0.137301045016E+04   -0.84809E-07   -0.42381E-09  3296   0.678E-05    0.406E-05
DAV:  18    -0.137301045018E+04   -0.21377E-07   -0.72552E-10  3136   0.447E-05    0.348E-05
DAV:  19    -0.137301045020E+04   -0.16138E-07   -0.44752E-10  3136   0.390E-05    0.269E-05
DAV:  20    -0.137301045021E+04   -0.97643E-08    0.13991E-10  3136   0.302E-05
   4 F= -.13921316E+04 E0= -.13921316E+04  d E =-.530811E-03  mag=     0.0000
       N       E                     dE             d eps       ncg     rms          rms(c)
DAV:   1    -0.137300956504E+04    0.88516E-03   -0.11555E+00  5120   0.124E+00    0.190E-01
DAV:   2    -0.137301058481E+04   -0.10198E-02   -0.13217E-02  5632   0.125E-01    0.146E-01
DAV:   3    -0.137301038923E+04    0.19558E-03   -0.13008E-03  6496   0.587E-02    0.856E-02
DAV:   4    -0.137301038757E+04    0.16672E-05   -0.56630E-04  5952   0.403E-02    0.277E-02
DAV:   5    -0.137301036820E+04    0.19368E-04   -0.18355E-04  5792   0.238E-02    0.152E-02
DAV:   6    -0.137301036801E+04    0.18628E-06   -0.48556E-05  5952   0.876E-03    0.906E-03
DAV:   7    -0.137301036671E+04    0.13053E-05   -0.10697E-05  6624   0.502E-03    0.413E-03
DAV:   8    -0.137301036643E+04    0.27631E-06   -0.31994E-06  5696   0.324E-03    0.347E-03
DAV:   9    -0.137301036609E+04    0.33560E-06   -0.94419E-07  6656   0.176E-03    0.157E-03
DAV:  10    -0.137301036635E+04   -0.25888E-06   -0.79315E-07  5936   0.160E-03    0.124E-03
DAV:  11    -0.137301036677E+04   -0.41303E-06   -0.30523E-07  6624   0.131E-03    0.986E-04
DAV:  12    -0.137301036731E+04   -0.54693E-06   -0.29837E-07  5472   0.833E-04    0.398E-04
DAV:  13    -0.137301036777E+04   -0.46066E-06   -0.45979E-08  4944   0.391E-04    0.246E-04
DAV:  14    -0.137301036814E+04   -0.36854E-06   -0.26346E-08  4256   0.299E-04    0.181E-04
DAV:  15    -0.137301036856E+04   -0.41576E-06   -0.27184E-08  4400   0.182E-04    0.144E-04
DAV:  16    -0.137301036883E+04   -0.27298E-06   -0.94152E-09  3552   0.107E-04    0.919E-05
DAV:  17    -0.137301036897E+04   -0.13903E-06   -0.47722E-09  3264   0.910E-05    0.460E-05
DAV:  18    -0.137301036907E+04   -0.98560E-07   -0.61047E-09  3232   0.969E-05    0.604E-05
DAV:  19    -0.137301036911E+04   -0.37340E-07   -0.30745E-09  3136   0.826E-05    0.637E-05
DAV:  20    -0.137301036912E+04   -0.13475E-07   -0.97368E-10  3136   0.596E-05    0.428E-05
DAV:  21    -0.137301036913E+04   -0.64756E-08   -0.37543E-10  3072   0.488E-05
   5 F= -.13921304E+04 E0= -.13921304E+04  d E =0.120041E-02  mag=     0.0000
       N       E                     dE             d eps       ncg     rms          rms(c)
DAV:   1    -0.137300980458E+04    0.56454E-03   -0.11504E+00  5120   0.110E+00    0.943E-02
DAV:   2    -0.137301048994E+04   -0.68537E-03   -0.90880E-03  5600   0.894E-02    0.619E-02
DAV:   3    -0.137301041191E+04    0.78036E-04   -0.73849E-04  6112   0.290E-02    0.310E-02
DAV:   4    -0.137301038859E+04    0.23314E-04   -0.14977E-04  5536   0.151E-02    0.122E-02
DAV:   5    -0.137301038937E+04   -0.77780E-06   -0.24900E-05  5600   0.686E-03    0.715E-03
DAV:   6    -0.137301038891E+04    0.45990E-06   -0.44239E-06  5568   0.243E-03    0.299E-03
DAV:   7    -0.137301038896E+04   -0.45242E-07   -0.11170E-06  7008   0.158E-03    0.146E-03
DAV:   8    -0.137301038908E+04   -0.12539E-06   -0.24324E-07  6496   0.674E-04    0.751E-04
DAV:   9    -0.137301038930E+04   -0.21351E-06   -0.49722E-08  4608   0.356E-04    0.390E-04
DAV:  10    -0.137301038956E+04   -0.26246E-06   -0.44650E-08  4704   0.320E-04    0.232E-04
DAV:  11    -0.137301038979E+04   -0.23459E-06   -0.23039E-08  4192   0.223E-04    0.142E-04
DAV:  12    -0.137301038996E+04   -0.17077E-06   -0.76068E-09  3328   0.125E-04    0.106E-04
DAV:  13    -0.137301039012E+04   -0.15131E-06   -0.94672E-09  3584   0.111E-04    0.744E-05
DAV:  14    -0.137301039020E+04   -0.81011E-07   -0.36307E-09  3168   0.753E-05    0.589E-05
DAV:  15    -0.137301039026E+04   -0.59008E-07   -0.30245E-09  3104   0.636E-05    0.410E-05
DAV:  16    -0.137301039029E+04   -0.32320E-07   -0.13080E-09  3072   0.560E-05    0.264E-05
DAV:  17    -0.137301039031E+04   -0.24927E-07   -0.14769E-09  3072   0.570E-05    0.274E-05
DAV:  18    -0.137301039032E+04   -0.77562E-08   -0.39602E-10  3072   0.428E-05
   6 F= -.13921304E+04 E0= -.13921304E+04  d E =-.700672E-04  mag=    -0.0000
       N       E                     dE             d eps       ncg     rms          rms(c)
DAV:   1    -0.137300977307E+04    0.61724E-03   -0.11609E+00  5120   0.112E+00    0.187E-01
DAV:   2    -0.137301042741E+04   -0.65434E-03   -0.10566E-02  5632   0.113E-01    0.153E-01
DAV:   3    -0.137301028445E+04    0.14296E-03   -0.13815E-03  6272   0.609E-02    0.714E-02
DAV:   4    -0.137301028794E+04   -0.34917E-05   -0.36577E-04  6176   0.305E-02    0.256E-02
DAV:   5    -0.137301027146E+04    0.16482E-04   -0.17116E-04  5664   0.245E-02    0.111E-02
DAV:   6    -0.137301027156E+04   -0.96654E-07   -0.25607E-05  5536   0.677E-03    0.651E-03
DAV:   7    -0.137301027134E+04    0.22353E-06   -0.52841E-06  6816   0.357E-03    0.351E-03
DAV:   8    -0.137301027120E+04    0.13430E-06   -0.13345E-06  5888   0.247E-03    0.229E-03
DAV:   9    -0.137301027129E+04   -0.93496E-07   -0.63918E-07  6624   0.165E-03    0.108E-03
DAV:  10    -0.137301027177E+04   -0.47340E-06   -0.45360E-07  5824   0.118E-03    0.106E-03
DAV:  11    -0.137301027240E+04   -0.62922E-06   -0.21612E-07  5952   0.105E-03    0.561E-04
DAV:  12    -0.137301027297E+04   -0.56831E-06   -0.16978E-07  5856   0.729E-04    0.345E-04
DAV:  13    -0.137301027344E+04   -0.47227E-06   -0.50945E-08  4992   0.328E-04    0.241E-04
DAV:  14    -0.137301027379E+04   -0.34910E-06   -0.12665E-08  3648   0.188E-04    0.143E-04
DAV:  15    -0.137301027415E+04   -0.36269E-06   -0.21536E-08  4032   0.155E-04    0.939E-05
DAV:  16    -0.137301027434E+04   -0.19526E-06   -0.64264E-09  3552   0.965E-05    0.649E-05
DAV:  17    -0.137301027450E+04   -0.15309E-06   -0.47323E-09  3360   0.812E-05    0.473E-05
DAV:  18    -0.137301027458E+04   -0.78406E-07   -0.23287E-09  3136   0.660E-05    0.365E-05
DAV:  19    -0.137301027463E+04   -0.57466E-07   -0.25776E-09  3200   0.669E-05    0.323E-05
DAV:  20    -0.137301027466E+04   -0.24054E-07   -0.10997E-09  3136   0.559E-05    0.303E-05
DAV:  21    -0.137301027467E+04   -0.10288E-07    0.59550E-11  3136   0.314E-05    0.187E-05
DAV:  22    -0.137301027468E+04   -0.85274E-08    0.33109E-10  3072   0.288E-05
   7 F= -.13921315E+04 E0= -.13921315E+04  d E =-.104765E-02  mag=     0.0000
       N       E                     dE             d eps       ncg     rms          rms(c)
DAV:   1    -0.137300970037E+04    0.57430E-03   -0.11566E+00  5120   0.116E+00    0.184E-01
DAV:   2    -0.137301080874E+04   -0.11084E-02   -0.13597E-02  5664   0.117E-01    0.140E-01
DAV:   3    -0.137301065628E+04    0.15246E-03   -0.12340E-03  6848   0.534E-02    0.807E-02
DAV:   4    -0.137301064196E+04    0.14319E-04   -0.58112E-04  5728   0.424E-02    0.275E-02
DAV:   5    -0.137301062144E+04    0.20519E-04   -0.27197E-04  5664   0.305E-02    0.133E-02
DAV:   6    -0.137301062192E+04   -0.47934E-06   -0.36239E-05  5568   0.723E-03    0.746E-03
DAV:   7    -0.137301062139E+04    0.53222E-06   -0.68778E-06  6496   0.388E-03    0.495E-03
DAV:   8    -0.137301062090E+04    0.49581E-06   -0.15829E-06  6048   0.243E-03    0.349E-03
DAV:   9    -0.137301062067E+04    0.22871E-06   -0.88719E-07  6592   0.216E-03    0.145E-03
DAV:  10    -0.137301062117E+04   -0.50373E-06   -0.79558E-07  6048   0.144E-03    0.124E-03
DAV:  11    -0.137301062184E+04   -0.66601E-06   -0.28159E-07  6112   0.913E-04    0.707E-04
DAV:  12    -0.137301062264E+04   -0.80049E-06   -0.11656E-07  5728   0.783E-04    0.359E-04
DAV:  13    -0.137301062329E+04   -0.64971E-06   -0.92306E-08  4992   0.526E-04    0.224E-04
DAV:  14    -0.137301062377E+04   -0.48611E-06   -0.41885E-08  4304   0.250E-04    0.173E-04
DAV:  15    -0.137301062419E+04   -0.41742E-06   -0.12896E-08  3744   0.142E-04    0.121E-04
DAV:  16    -0.137301062447E+04   -0.28442E-06   -0.11982E-08  3776   0.114E-04    0.758E-05
DAV:  17    -0.137301062465E+04   -0.17478E-06   -0.49767E-09  3232   0.759E-05    0.813E-05
DAV:  18    -0.137301062476E+04   -0.10770E-06   -0.35982E-09  3136   0.768E-05    0.519E-05
DAV:  19    -0.137301062480E+04   -0.45649E-07   -0.26883E-09  3104   0.755E-05    0.353E-05
DAV:  20    -0.137301062482E+04   -0.21682E-07   -0.16054E-09  3136   0.622E-05    0.448E-05
DAV:  21    -0.137301062483E+04   -0.77125E-08   -0.22837E-10  3136   0.414E-05
   8 F= -.13921306E+04 E0= -.13921306E+04  d E =0.901859E-03  mag=     0.0000
       N       E                     dE             d eps       ncg     rms          rms(c)
DAV:   1    -0.137300958973E+04    0.10351E-02   -0.11705E+00  5120   0.115E+00    0.308E-01
DAV:   2    -0.137301020857E+04   -0.61884E-03   -0.10841E-02  5824   0.122E-01    0.256E-01
DAV:   3    -0.137301007118E+04    0.13739E-03   -0.26567E-03  5888   0.103E-01    0.477E-02
DAV:   4    -0.137301004611E+04    0.25061E-04   -0.67604E-04  5632   0.409E-02    0.306E-02
DAV:   5    -0.137301004080E+04    0.53106E-05   -0.17378E-04  6560   0.177E-02    0.174E-02
DAV:   6    -0.137301003779E+04    0.30145E-05   -0.29046E-05  6912   0.815E-03    0.724E-03
DAV:   7    -0.137301003783E+04   -0.36933E-07   -0.36870E-06  6304   0.253E-03    0.362E-03
DAV:   8    -0.137301003837E+04   -0.54568E-06   -0.86980E-07  7136   0.153E-03    0.151E-03
DAV:   9    -0.137301003900E+04   -0.62559E-06   -0.26129E-07  5600   0.818E-04    0.875E-04
DAV:  10    -0.137301003986E+04   -0.86280E-06   -0.13482E-07  5280   0.566E-04    0.477E-04
DAV:  11    -0.137301004072E+04   -0.85522E-06   -0.99521E-08  4896   0.557E-04    0.298E-04
DAV:  12    -0.137301004139E+04   -0.67026E-06   -0.68316E-08  4976   0.337E-04    0.266E-04
DAV:  13    -0.137301004177E+04   -0.38277E-06   -0.15151E-08  3904   0.153E-04    0.182E-04
DAV:  14    -0.137301004210E+04   -0.33010E-06   -0.15819E-08  3840   0.130E-04    0.105E-04
DAV:  15    -0.137301004228E+04   -0.18168E-06   -0.53969E-09  3456   0.936E-05    0.723E-05
DAV:  16    -0.137301004239E+04   -0.10844E-06   -0.31850E-09  3136   0.788E-05    0.419E-05
DAV:  17    -0.137301004249E+04   -0.98487E-07   -0.48349E-09  3296   0.888E-05    0.333E-05
DAV:  18    -0.137301004252E+04   -0.32378E-07   -0.20642E-09  3072   0.773E-05    0.271E-05
DAV:  19    -0.137301004255E+04   -0.29017E-07   -0.10840E-09  3072   0.537E-05    0.225E-05
DAV:  20    -0.137301004256E+04   -0.14043E-07   -0.30489E-10  3072   0.375E-05    0.211E-05
DAV:  21    -0.137301004257E+04   -0.35652E-08    0.35767E-10  2944   0.230E-05
   9 F= -.13921305E+04 E0= -.13921305E+04  d E =0.106361E-03  mag=     0.0000
       N       E                     dE             d eps       ncg     rms          rms(c)
DAV:   1    -0.137300956336E+04    0.47920E-03   -0.11454E+00  5120   0.115E+00    0.235E-01
DAV:   2    -0.137301050782E+04   -0.94446E-03   -0.12078E-02  5760   0.105E-01    0.170E-01
DAV:   3    -0.137301034483E+04    0.16299E-03   -0.13732E-03  6496   0.554E-02    0.699E-02
DAV:   4    -0.137301035312E+04   -0.82908E-05   -0.30363E-04  5824   0.208E-02    0.293E-02
DAV:   5    -0.137301033839E+04    0.14725E-04   -0.10332E-04  5888   0.162E-02    0.124E-02
DAV:   6    -0.137301033789E+04    0.50271E-06   -0.17608E-05  5824   0.601E-03    0.517E-03
DAV:   7    -0.137301033851E+04   -0.61741E-06   -0.44665E-06  6432   0.324E-03    0.218E-03
DAV:   8    -0.137301033906E+04   -0.55118E-06   -0.10409E-06  6400   0.143E-03    0.138E-03
DAV:   9    -0.137301034010E+04   -0.10434E-05   -0.35084E-07  5728   0.102E-03    0.108E-03
DAV:  10    -0.137301034120E+04   -0.10954E-05   -0.23760E-07  6080   0.912E-04    0.683E-04
DAV:  11    -0.137301034218E+04   -0.97643E-06   -0.26819E-07  5280   0.800E-04    0.429E-04
DAV:  12    -0.137301034297E+04   -0.79538E-06   -0.80622E-08  4960   0.489E-04    0.295E-04
DAV:  13    -0.137301034347E+04   -0.49734E-06   -0.32670E-08  4576   0.249E-04    0.167E-04
DAV:  14    -0.137301034386E+04   -0.39228E-06   -0.14440E-08  3712   0.160E-04    0.986E-05
DAV:  15    -0.137301034412E+04   -0.26281E-06   -0.10627E-08  3776   0.108E-04    0.872E-05
DAV:  16    -0.137301034437E+04   -0.24776E-06   -0.94851E-09  3552   0.921E-05    0.542E-05
DAV:  17    -0.137301034446E+04   -0.86904E-07   -0.35807E-09  3168   0.716E-05    0.453E-05
DAV:  18    -0.137301034451E+04   -0.50524E-07   -0.19264E-09  3136   0.549E-05    0.441E-05
DAV:  19    -0.137301034455E+04   -0.39348E-07   -0.12736E-09  3136   0.525E-05    0.261E-05
DAV:  20    -0.137301034456E+04   -0.16167E-07   -0.43873E-10  3136   0.416E-05    0.162E-05
DAV:  21    -0.137301034457E+04   -0.96770E-08    0.19591E-10  3072   0.261E-05
  10 F= -.13921315E+04 E0= -.13921315E+04  d E =-.103523E-02  mag=     0.0000
       N       E                     dE             d eps       ncg     rms          rms(c)
DAV:   1    -0.137300933261E+04    0.10120E-02   -0.61732E-01  5120   0.846E-01    0.163E-01
DAV:   2    -0.137300967691E+04   -0.34430E-03   -0.71386E-03  5888   0.870E-02    0.112E-01
DAV:   3    -0.137300955556E+04    0.12135E-03   -0.11373E-03  6176   0.459E-02    0.547E-02
DAV:   4    -0.137300955546E+04    0.99579E-07   -0.18944E-04  6048   0.176E-02    0.237E-02
DAV:   5    -0.137300954799E+04    0.74683E-05   -0.59350E-05  5664   0.120E-02    0.899E-03
DAV:   6    -0.137300954708E+04    0.90619E-06   -0.86579E-06  5920   0.432E-03    0.378E-03
DAV:   7    -0.137300954719E+04   -0.11208E-06   -0.24120E-06  6848   0.230E-03    0.224E-03
DAV:   8    -0.137300954733E+04   -0.13135E-06   -0.50502E-07  6384   0.124E-03    0.124E-03
DAV:   9    -0.137300954786E+04   -0.53195E-06   -0.24223E-07  5728   0.131E-03    0.699E-04
DAV:  10    -0.137300954832E+04   -0.46322E-06   -0.21716E-07  5952   0.852E-04    0.598E-04
DAV:  11    -0.137300954898E+04   -0.65622E-06   -0.14274E-07  5952   0.768E-04    0.312E-04
DAV:  12    -0.137300954951E+04   -0.53662E-06   -0.85317E-08  5248   0.592E-04    0.297E-04
DAV:  13    -0.137300954985E+04   -0.33499E-06   -0.47373E-08  4704   0.283E-04    0.194E-04
DAV:  14    -0.137300955001E+04   -0.16071E-06   -0.43932E-09  3264   0.995E-05    0.118E-04
DAV:  15    -0.137300955029E+04   -0.28091E-06   -0.11522E-08  3616   0.106E-04    0.888E-05
DAV:  16    -0.137300955042E+04   -0.12654E-06   -0.28586E-09  3232   0.668E-05    0.524E-05
DAV:  17    -0.137300955057E+04   -0.14908E-06   -0.59703E-09  3392   0.734E-05    0.489E-05
DAV:  18    -0.137300955060E+04   -0.37209E-07   -0.97298E-10  3136   0.486E-05    0.378E-05
DAV:  19    -0.137300955064E+04   -0.35332E-07   -0.12917E-09  3040   0.474E-05    0.256E-05
DAV:  20    -0.137300955065E+04   -0.69413E-08   -0.79577E-11  3136   0.370E-05
  11 F= -.13921299E+04 E0= -.13921299E+04  d E =0.157811E-02  mag=    -0.0000
       N       E                     dE             d eps       ncg     rms          rms(c)
DAV:   1    -0.137301092525E+04   -0.13746E-02   -0.84452E-02  4480   0.146E-01    0.137E-01
DAV:   2    -0.137301074765E+04    0.17760E-03   -0.16162E-03  4768   0.230E-02    0.765E-02
DAV:   3    -0.137301070098E+04    0.46672E-04   -0.78488E-04  4672   0.152E-02    0.267E-02
DAV:   4    -0.137301068768E+04    0.13292E-04   -0.82077E-05  4768   0.505E-03    0.164E-02
DAV:   5    -0.137301068652E+04    0.11657E-05   -0.23214E-05  5248   0.270E-03    0.281E-03
DAV:   6    -0.137301068654E+04   -0.22235E-07   -0.17756E-06  4480   0.782E-04    0.120E-03
DAV:   7    -0.137301068665E+04   -0.10748E-06   -0.35545E-07  4928   0.348E-04    0.845E-04
DAV:   8    -0.137301068681E+04   -0.16240E-06   -0.43708E-08  3872   0.169E-04    0.312E-04
DAV:   9    -0.137301068699E+04   -0.18359E-06   -0.30928E-08  3904   0.141E-04    0.206E-04
DAV:  10    -0.137301068718E+04   -0.19064E-06   -0.93846E-09  3584   0.134E-04    0.976E-05
DAV:  11    -0.137301068735E+04   -0.16668E-06   -0.10880E-08  3616   0.145E-04    0.694E-05
DAV:  12    -0.137301068746E+04   -0.10547E-06   -0.66906E-09  3360   0.135E-04    0.482E-05
DAV:  13    -0.137301068760E+04   -0.13990E-06   -0.81127E-09  3552   0.983E-05    0.324E-05
DAV:  14    -0.137301068763E+04   -0.37777E-07   -0.12543E-09  3136   0.629E-05    0.235E-05
DAV:  15    -0.137301068768E+04   -0.49215E-07   -0.17441E-09  3200   0.558E-05    0.184E-05
DAV:  16    -0.137301068770E+04   -0.17375E-07   -0.34009E-10  3072   0.431E-05    0.145E-05
DAV:  17    -0.137301068771E+04   -0.90949E-08    0.25169E-10  3136   0.245E-05
  12 F= -.13921310E+04 E0= -.13921310E+04  d E =-.107778E-02  mag=    -0.0000
       N       E                     dE             d eps       ncg     rms          rms(c)
DAV:   1    -0.137301094114E+04   -0.25344E-03   -0.73565E-02  4448   0.139E-01    0.835E-02
DAV:   2    -0.137301094897E+04   -0.78223E-05   -0.54349E-04  4608   0.120E-02    0.496E-02
DAV:   3    -0.137301094613E+04    0.28350E-05   -0.11049E-04  4800   0.611E-03    0.860E-03
DAV:   4    -0.137301094512E+04    0.10140E-05   -0.11458E-05  4480   0.208E-03    0.487E-03
DAV:   5    -0.137301094506E+04    0.53784E-07   -0.47464E-06  4352   0.131E-03    0.142E-03
DAV:   6    -0.137301094520E+04   -0.14166E-06   -0.55456E-07  4416   0.466E-04    0.786E-04
DAV:   7    -0.137301094546E+04   -0.25662E-06   -0.73166E-08  4128   0.201E-04    0.257E-04
DAV:   8    -0.137301094567E+04   -0.21356E-06   -0.17791E-08  3776   0.101E-04    0.166E-04
DAV:   9    -0.137301094594E+04   -0.26483E-06   -0.10500E-08  3712   0.104E-04    0.871E-05
DAV:  10    -0.137301094614E+04   -0.19804E-06   -0.82604E-09  3536   0.107E-04    0.581E-05
DAV:  11    -0.137301094626E+04   -0.12090E-06   -0.47736E-09  3360   0.921E-05    0.419E-05
DAV:  12    -0.137301094635E+04   -0.93482E-07   -0.33289E-09  3264   0.777E-05    0.277E-05
DAV:  13    -0.137301094643E+04   -0.83368E-07   -0.30892E-09  3360   0.627E-05    0.188E-05
DAV:  14    -0.137301094647E+04   -0.33819E-07   -0.91408E-10  3072   0.469E-05    0.146E-05
DAV:  15    -0.137301094649E+04   -0.21304E-07   -0.49356E-10  3072   0.358E-05    0.893E-06
DAV:  16    -0.137301094650E+04   -0.73633E-08    0.14618E-10  3072   0.261E-05
  13 F= -.13921311E+04 E0= -.13921311E+04  d E =-.124834E-03  mag=     0.0000
       N       E                     dE             d eps       ncg     rms          rms(c)
DAV:   1    -0.137301065934E+04    0.28715E-03   -0.71775E-02  5056   0.178E-01    0.776E-02
DAV:   2    -0.137301069085E+04   -0.31512E-04   -0.56861E-04  5664   0.148E-02    0.477E-02
DAV:   3    -0.137301069088E+04   -0.26746E-07   -0.82360E-05  5568   0.631E-03    0.624E-03
DAV:   4    -0.137301069095E+04   -0.71406E-07   -0.87974E-06  4960   0.186E-03    0.438E-03
DAV:   5    -0.137301069085E+04    0.10167E-06   -0.27699E-06  4800   0.110E-03    0.126E-03
DAV:   6    -0.137301069108E+04   -0.23711E-06   -0.32298E-07  4480   0.418E-04    0.673E-04
DAV:   7    -0.137301069140E+04   -0.31307E-06   -0.67399E-08  4256   0.208E-04    0.314E-04
DAV:   8    -0.137301069171E+04   -0.31697E-06   -0.22099E-08  3872   0.133E-04    0.210E-04
DAV:   9    -0.137301069209E+04   -0.37930E-06   -0.18011E-08  3888   0.131E-04    0.902E-05
DAV:  10    -0.137301069236E+04   -0.27027E-06   -0.10640E-08  3680   0.884E-05    0.947E-05
DAV:  11    -0.137301069251E+04   -0.14665E-06   -0.26981E-09  3360   0.576E-05    0.544E-05
DAV:  12    -0.137301069268E+04   -0.17240E-06   -0.57417E-09  3632   0.658E-05    0.380E-05
DAV:  13    -0.137301069273E+04   -0.52925E-07   -0.72334E-10  3136   0.484E-05    0.308E-05
DAV:  14    -0.137301069281E+04   -0.71595E-07   -0.11831E-09  3104   0.425E-05    0.152E-05
DAV:  15    -0.137301069284E+04   -0.34415E-07   -0.30410E-10  3136   0.358E-05    0.124E-05
DAV:  16    -0.137301069286E+04   -0.17433E-07    0.26100E-10  3136   0.249E-05    0.734E-06
DAV:  17    -0.137301069287E+04   -0.13490E-07    0.39679E-10  3040   0.232E-05    0.810E-06
DAV:  18    -0.137301069288E+04   -0.36962E-08    0.63275E-10  3072   0.132E-05
  14 F= -.13921310E+04 E0= -.13921310E+04  d E =0.171224E-03  mag=    -0.0000
       N       E                     dE             d eps       ncg     rms          rms(c)
DAV:   1    -0.137301069750E+04   -0.46261E-05   -0.72343E-02  5088   0.187E-01    0.875E-02
DAV:   2    -0.137301069040E+04    0.71011E-05   -0.59131E-04  5312   0.173E-02    0.512E-02
DAV:   3    -0.137301068771E+04    0.26889E-05   -0.19162E-04  5760   0.924E-03    0.130E-02
DAV:   4    -0.137301068511E+04    0.25996E-05   -0.21054E-05  5120   0.291E-03    0.807E-03
DAV:   5    -0.137301068477E+04    0.33926E-06   -0.95235E-06  4928   0.182E-03    0.162E-03
DAV:   6    -0.137301068480E+04   -0.31068E-07   -0.70963E-07  4768   0.578E-04    0.841E-04
DAV:   7    -0.137301068483E+04   -0.29278E-07   -0.71794E-08  4224   0.232E-04    0.354E-04
DAV:   8    -0.137301068487E+04   -0.45169E-07   -0.28544E-08  4128   0.145E-04    0.210E-04
DAV:   9    -0.137301068492E+04   -0.48982E-07   -0.60129E-09  3520   0.965E-05    0.926E-05
DAV:  10    -0.137301068497E+04   -0.47934E-07   -0.37966E-09  3424   0.746E-05    0.666E-05
DAV:  11    -0.137301068501E+04   -0.35536E-07   -0.13536E-09  3136   0.523E-05    0.489E-05
DAV:  12    -0.137301068505E+04   -0.38548E-07   -0.18219E-09  3200   0.563E-05    0.211E-05
DAV:  13    -0.137301068506E+04   -0.16662E-07   -0.80337E-10  3136   0.488E-05    0.241E-05
DAV:  14    -0.137301068507E+04   -0.89203E-08   -0.55364E-11  3136   0.359E-05
  15 F= -.13921310E+04 E0= -.13921310E+04  d E =-.433135E-05  mag=     0.0000
       N       E                     dE             d eps       ncg     rms          rms(c)
DAV:   1    -0.137301005043E+04    0.63463E-03   -0.72666E-02  5056   0.186E-01    0.888E-02
DAV:   2    -0.137301003490E+04    0.15526E-04   -0.57269E-04  5504   0.172E-02    0.521E-02
DAV:   3    -0.137301003045E+04    0.44586E-05   -0.19888E-04  5888   0.985E-03    0.133E-02
DAV:   4    -0.137301002733E+04    0.31118E-05   -0.20520E-05  5632   0.334E-03    0.817E-03
DAV:   5    -0.137301002686E+04    0.47885E-06   -0.96624E-06  5216   0.199E-03    0.180E-03
DAV:   6    -0.137301002690E+04   -0.46086E-07   -0.81865E-07  4736   0.666E-04    0.937E-04
DAV:   7    -0.137301002691E+04   -0.61409E-08   -0.88003E-08  4800   0.301E-04
  16 F= -.13921301E+04 E0= -.13921301E+04  d E =0.908109E-03  mag=     0.0000
       N       E                     dE             d eps       ncg     rms          rms(c)
DAV:   1    -0.137300967326E+04    0.35364E-03   -0.82209E-02  5056   0.194E-01    0.130E-01
DAV:   2    -0.137300954823E+04    0.12504E-03   -0.16934E-03  5440   0.309E-02    0.787E-02
DAV:   3    -0.137300950189E+04    0.46332E-04   -0.10731E-03  5568   0.209E-02    0.301E-02
DAV:   4    -0.137300948283E+04    0.19068E-04   -0.12309E-04  5472   0.708E-03    0.207E-02
DAV:   5    -0.137300947870E+04    0.41259E-05   -0.41704E-05  5248   0.372E-03    0.500E-03
DAV:   6    -0.137300947842E+04    0.27564E-06   -0.42154E-06  5440   0.146E-03    0.144E-03
DAV:   7    -0.137300947842E+04    0.21682E-08   -0.70015E-07  5216   0.572E-04    0.112E-03
DAV:   8    -0.137300947847E+04   -0.44776E-07   -0.97657E-08  4320   0.314E-04    0.451E-04
DAV:   9    -0.137300947853E+04   -0.62602E-07   -0.47920E-08  4128   0.227E-04    0.199E-04
DAV:  10    -0.137300947863E+04   -0.97774E-07   -0.11024E-08  3744   0.175E-04    0.115E-04
DAV:  11    -0.137300947871E+04   -0.84474E-07   -0.92056E-09  3616   0.172E-04    0.896E-05
DAV:  12    -0.137300947880E+04   -0.87981E-07   -0.16140E-08  4064   0.225E-04    0.584E-05
DAV:  13    -0.137300947886E+04   -0.59925E-07   -0.12263E-08  3872   0.208E-04    0.426E-05
DAV:  14    -0.137300947890E+04   -0.37471E-07   -0.17444E-09  3136   0.849E-05    0.334E-05
DAV:  15    -0.137300947894E+04   -0.41720E-07   -0.19086E-09  3232   0.614E-05    0.248E-05
DAV:  16    -0.137300947895E+04   -0.98371E-08   -0.55774E-11  3136   0.415E-05
  17 F= -.13921298E+04 E0= -.13921298E+04  d E =0.295581E-03  mag=     0.0000
       N       E                     dE             d eps       ncg     rms          rms(c)
DAV:   1    -0.137301087691E+04   -0.13980E-02   -0.84118E-02  4480   0.150E-01    0.135E-01
DAV:   2    -0.137301070109E+04    0.17582E-03   -0.15767E-03  4480   0.227E-02    0.782E-02
DAV:   3    -0.137301065126E+04    0.49831E-04   -0.92824E-04  4608   0.165E-02    0.288E-02
DAV:   4    -0.137301063407E+04    0.17193E-04   -0.10032E-04  4352   0.548E-03    0.178E-02
DAV:   5    -0.137301063239E+04    0.16862E-05   -0.27534E-05  5280   0.280E-03    0.368E-03
DAV:   6    -0.137301063253E+04   -0.14491E-06   -0.23286E-06  4448   0.912E-04    0.110E-03
DAV:   7    -0.137301063306E+04   -0.53292E-06   -0.45299E-07  4992   0.405E-04    0.955E-04
DAV:   8    -0.137301063366E+04   -0.60187E-06   -0.72884E-08  4320   0.248E-04    0.346E-04
DAV:   9    -0.137301063420E+04   -0.53918E-06   -0.69898E-08  4336   0.238E-04    0.322E-04
DAV:  10    -0.137301063475E+04   -0.54980E-06   -0.43229E-08  4208   0.287E-04    0.122E-04
DAV:  11    -0.137301063501E+04   -0.26106E-06   -0.31223E-08  4176   0.274E-04    0.939E-05
DAV:  12    -0.137301063522E+04   -0.20127E-06   -0.15125E-08  3920   0.198E-04    0.547E-05
DAV:  13    -0.137301063541E+04   -0.19895E-06   -0.12632E-08  3776   0.155E-04    0.403E-05
DAV:  14    -0.137301063549E+04   -0.76136E-07   -0.31167E-09  3232   0.983E-05    0.269E-05
DAV:  15    -0.137301063558E+04   -0.93045E-07   -0.45169E-09  3392   0.986E-05    0.177E-05
DAV:  16    -0.137301063561E+04   -0.24564E-07   -0.10534E-09  3072   0.639E-05    0.152E-05
DAV:  17    -0.137301063564E+04   -0.30981E-07   -0.95736E-11  3072   0.326E-05    0.946E-06
DAV:  18    -0.137301063565E+04   -0.12908E-07    0.34159E-10  3072   0.217E-05    0.966E-06
DAV:  19    -0.137301063565E+04   -0.14843E-08    0.65428E-10  2784   0.128E-05
  18 F= -.13921310E+04 E0= -.13921310E+04  d E =-.123860E-02  mag=    -0.0000
       N       E                     dE             d eps       ncg     rms          rms(c)
DAV:   1    -0.137301078428E+04   -0.14863E-03   -0.72667E-02  4384   0.143E-01    0.789E-02
DAV:   2    -0.137301079281E+04   -0.85319E-05   -0.43172E-04  4384   0.106E-02    0.476E-02
DAV:   3    -0.137301079366E+04   -0.84487E-06   -0.84562E-05  4416   0.509E-03    0.696E-03
DAV:   4    -0.137301079313E+04    0.52534E-06   -0.82959E-06  4384   0.159E-03    0.414E-03
DAV:   5    -0.137301079350E+04   -0.36396E-06   -0.36628E-06  4416   0.105E-03    0.136E-03
DAV:   6    -0.137301079387E+04   -0.37177E-06   -0.44398E-07  4160   0.389E-04    0.680E-04
DAV:   7    -0.137301079458E+04   -0.71443E-06   -0.97455E-08  4064   0.207E-04    0.259E-04
DAV:   8    -0.137301079513E+04   -0.54507E-06   -0.25926E-08  3712   0.109E-04    0.183E-04
DAV:   9    -0.137301079585E+04   -0.72547E-06   -0.25702E-08  3872   0.124E-04    0.916E-05
DAV:  10    -0.137301079637E+04   -0.51917E-06   -0.24354E-08  3952   0.153E-04    0.633E-05
DAV:  11    -0.137301079661E+04   -0.24086E-06   -0.10006E-08  3616   0.162E-04    0.481E-05
DAV:  12    -0.137301079685E+04   -0.23408E-06   -0.10717E-08  3648   0.149E-04    0.292E-05
DAV:  13    -0.137301079693E+04   -0.86191E-07   -0.35089E-09  3264   0.954E-05    0.199E-05
DAV:  14    -0.137301079697E+04   -0.35929E-07   -0.97514E-10  3072   0.523E-05    0.135E-05
DAV:  15    -0.137301079699E+04   -0.20431E-07   -0.21782E-10  3072   0.366E-05    0.881E-06
DAV:  16    -0.137301079699E+04   -0.42346E-08    0.38153E-10  3072   0.230E-05
  19 F= -.13921310E+04 E0= -.13921310E+04  d E =0.443554E-04  mag=    -0.0000
       N       E                     dE             d eps       ncg     rms          rms(c)
DAV:   1    -0.137300959982E+04    0.11972E-02   -0.78751E-02  4864   0.165E-01    0.112E-01
DAV:   2    -0.137300953644E+04    0.63379E-04   -0.11973E-03  4992   0.221E-02    0.665E-02
DAV:   3    -0.137300951005E+04    0.26390E-04   -0.55020E-04  5248   0.141E-02    0.224E-02
DAV:   4    -0.137300950083E+04    0.92154E-05   -0.55322E-05  4832   0.460E-03    0.149E-02
DAV:   5    -0.137300949941E+04    0.14258E-05   -0.20622E-05  5152   0.276E-03    0.310E-03
DAV:   6    -0.137300949948E+04   -0.79046E-07   -0.18941E-06  4736   0.913E-04    0.118E-03
DAV:   7    -0.137300949966E+04   -0.17995E-06   -0.35515E-07  5120   0.407E-04    0.792E-04
DAV:   8    -0.137300949990E+04   -0.23695E-06   -0.65819E-08  3904   0.205E-04    0.316E-04
DAV:   9    -0.137300950009E+04   -0.18519E-06   -0.23959E-08  4096   0.135E-04    0.171E-04
DAV:  10    -0.137300950030E+04   -0.21688E-06   -0.77961E-09  3584   0.963E-05    0.959E-05
DAV:  11    -0.137300950044E+04   -0.13747E-06   -0.46061E-09  3424   0.750E-05    0.695E-05
DAV:  12    -0.137300950057E+04   -0.13322E-06   -0.48108E-09  3424   0.870E-05    0.363E-05
DAV:  13    -0.137300950065E+04   -0.75510E-07   -0.32359E-09  3264   0.823E-05    0.337E-05
DAV:  14    -0.137300950070E+04   -0.46843E-07   -0.16741E-09  3072   0.645E-05    0.240E-05
DAV:  15    -0.137300950074E+04   -0.48138E-07   -0.16513E-09  3168   0.553E-05    0.177E-05
DAV:  16    -0.137300950076E+04   -0.16298E-07   -0.16896E-10  3072   0.340E-05    0.125E-05
DAV:  17    -0.137300950077E+04   -0.13591E-07    0.23018E-10  3008   0.268E-05    0.123E-05
DAV:  18    -0.137300950078E+04   -0.54279E-08    0.52400E-10  3072   0.188E-05
  20 F= -.13921299E+04 E0= -.13921299E+04  d E =0.110962E-02  mag=    -0.0000
       N       E                     dE             d eps       ncg     rms          rms(c)
DAV:   1    -0.137301101615E+04   -0.15154E-02   -0.84054E-02  4864   0.171E-01    0.136E-01
DAV:   2    -0.137301083808E+04    0.17806E-03   -0.15492E-03  5216   0.261E-02    0.773E-02
DAV:   3    -0.137301078333E+04    0.54750E-04   -0.78434E-04  5216   0.168E-02    0.268E-02
DAV:   4    -0.137301077091E+04    0.12422E-04   -0.76475E-05  4960   0.545E-03    0.180E-02
DAV:   5    -0.137301076913E+04    0.17763E-05   -0.23135E-05  5248   0.298E-03    0.389E-03
DAV:   6    -0.137301076894E+04    0.19187E-06   -0.27776E-06  4736   0.111E-03    0.120E-03
DAV:   7    -0.137301076903E+04   -0.83382E-07   -0.44816E-07  5440   0.443E-04    0.878E-04
DAV:   8    -0.137301076911E+04   -0.82102E-07   -0.49118E-08  4064   0.194E-04    0.335E-04
DAV:   9    -0.137301076919E+04   -0.82902E-07   -0.20374E-08  3776   0.126E-04    0.168E-04
DAV:  10    -0.137301076929E+04   -0.98764E-07   -0.59445E-09  3520   0.956E-05    0.928E-05
DAV:  11    -0.137301076936E+04   -0.67390E-07   -0.24713E-09  3264   0.678E-05    0.678E-05
DAV:  12    -0.137301076944E+04   -0.78508E-07   -0.37978E-09  3360   0.743E-05    0.431E-05
DAV:  13    -0.137301076948E+04   -0.45256E-07   -0.19534E-09  3088   0.650E-05    0.371E-05
DAV:  14    -0.137301076951E+04   -0.31388E-07   -0.12558E-09  3136   0.521E-05    0.272E-05
DAV:  15    -0.137301076954E+04   -0.28391E-07   -0.11601E-09  3104   0.446E-05    0.181E-05
DAV:  16    -0.137301076956E+04   -0.14799E-07   -0.34871E-10  3136   0.370E-05    0.125E-05
DAV:  17    -0.137301076956E+04   -0.97934E-08    0.76421E-12  3136   0.303E-05
  21 F= -.13921311E+04 E0= -.13921311E+04  d E =-.120962E-02  mag=     0.0000
       N       E                     dE             d eps       ncg     rms          rms(c)
DAV:   1    -0.137301108678E+04   -0.31722E-03   -0.73667E-02  5024   0.164E-01    0.844E-02
DAV:   2    -0.137301108421E+04    0.25735E-05   -0.52130E-04  5248   0.138E-02    0.501E-02
DAV:   3    -0.137301108017E+04    0.40360E-05   -0.13882E-04  5088   0.719E-03    0.102E-02
DAV:   4    -0.137301107820E+04    0.19665E-05   -0.14028E-05  4608   0.242E-03    0.641E-03
DAV:   5    -0.137301107788E+04    0.32717E-06   -0.63409E-06  4416   0.153E-03    0.142E-03
DAV:   6    -0.137301107799E+04   -0.11694E-06   -0.57017E-07  4352   0.512E-04    0.791E-04
DAV:   7    -0.137301107810E+04   -0.10643E-06   -0.60456E-08  4256   0.199E-04    0.343E-04
DAV:   8    -0.137301107826E+04   -0.16419E-06   -0.21764E-08  3808   0.106E-04    0.192E-04
DAV:   9    -0.137301107843E+04   -0.16823E-06   -0.71337E-09  3616   0.776E-05    0.944E-05
DAV:  10    -0.137301107863E+04   -0.19609E-06   -0.79424E-09  3552   0.772E-05    0.695E-05
DAV:  11    -0.137301107877E+04   -0.14047E-06   -0.57061E-09  3456   0.888E-05    0.465E-05
DAV:  12    -0.137301107888E+04   -0.10923E-06   -0.73575E-09  3632   0.120E-04    0.285E-05
DAV:  13    -0.137301107894E+04   -0.59707E-07   -0.36326E-09  3296   0.941E-05    0.280E-05
DAV:  14    -0.137301107897E+04   -0.35274E-07   -0.88406E-10  3072   0.444E-05    0.138E-05
DAV:  15    -0.137301107899E+04   -0.19179E-07   -0.35363E-10  3072   0.358E-05    0.107E-05
DAV:  16    -0.137301107900E+04   -0.57480E-08    0.32080E-10  3072   0.230E-05
  22 F= -.13921311E+04 E0= -.13921311E+04  d E =-.662537E-04  mag=     0.0000
       N       E                     dE             d eps       ncg     rms          rms(c)
DAV:   1    -0.137301073876E+04    0.34023E-03   -0.72328E-02  4960   0.166E-01    0.770E-02
DAV:   2    -0.137301077000E+04   -0.31239E-04   -0.58434E-04  5184   0.135E-02    0.473E-02
DAV:   3    -0.137301077287E+04   -0.28715E-05   -0.67456E-05  5312   0.552E-03    0.558E-03
DAV:   4    -0.137301077316E+04   -0.28781E-06   -0.70625E-06  4704   0.157E-03    0.368E-03
DAV:   5    -0.137301077335E+04   -0.18765E-06   -0.19352E-06  4832   0.905E-04    0.116E-03
DAV:   6    -0.137301077374E+04   -0.39258E-06   -0.21326E-07  4736   0.386E-04    0.629E-04
DAV:   7    -0.137301077428E+04   -0.53702E-06   -0.63928E-08  4224   0.209E-04    0.339E-04
DAV:   8    -0.137301077481E+04   -0.52666E-06   -0.27446E-08  3840   0.130E-04    0.216E-04
DAV:   9    -0.137301077546E+04   -0.65489E-06   -0.31043E-08  4064   0.146E-04    0.135E-04
DAV:  10    -0.137301077590E+04   -0.44085E-06   -0.15109E-08  3712   0.105E-04    0.103E-04
DAV:  11    -0.137301077622E+04   -0.32163E-06   -0.95990E-09  3552   0.923E-05    0.580E-05
DAV:  12    -0.137301077644E+04   -0.21215E-06   -0.67273E-09  3520   0.101E-04    0.391E-05
DAV:  13    -0.137301077658E+04   -0.14390E-06   -0.47090E-09  3392   0.944E-05    0.327E-05
DAV:  14    -0.137301077668E+04   -0.98109E-07   -0.26790E-09  3168   0.653E-05    0.194E-05
DAV:  15    -0.137301077673E+04   -0.52169E-07   -0.10840E-09  3072   0.488E-05    0.108E-05
DAV:  16    -0.137301077675E+04   -0.20140E-07   -0.22210E-10  3072   0.363E-05    0.108E-05
DAV:  17    -0.137301077676E+04   -0.13955E-07    0.31281E-10  3072   0.203E-05    0.739E-06
DAV:  18    -0.137301077677E+04   -0.58062E-08    0.55394E-10  3072   0.151E-05
  23 F= -.13921311E+04 E0= -.13921311E+04  d E =0.119455E-04  mag=    -0.0000
       N       E                     dE             d eps       ncg     rms          rms(c)
DAV:   1    -0.137301016685E+04    0.60992E-03   -0.78568E-02  4448   0.152E-01    0.110E-01
DAV:   2    -0.137301008964E+04    0.77210E-04   -0.99478E-04  4448   0.172E-02    0.648E-02
DAV:   3    -0.137301006839E+04    0.21249E-04   -0.53000E-04  4608   0.125E-02    0.216E-02
DAV:   4    -0.137301005859E+04    0.97972E-05   -0.54335E-05  4352   0.412E-03    0.136E-02
DAV:   5    -0.137301005752E+04    0.10721E-05   -0.21539E-05  4544   0.246E-03    0.234E-03
DAV:   6    -0.137301005789E+04   -0.37329E-06   -0.13146E-06  4528   0.708E-04    0.111E-03
DAV:   7    -0.137301005845E+04   -0.55542E-06   -0.29835E-07  4384   0.311E-04    0.849E-04
DAV:   8    -0.137301005921E+04   -0.76162E-06   -0.89147E-08  4000   0.204E-04    0.249E-04
DAV:   9    -0.137301005987E+04   -0.66182E-06   -0.35659E-08  3840   0.136E-04    0.263E-04
DAV:  10    -0.137301006069E+04   -0.81575E-06   -0.32757E-08  3952   0.143E-04    0.102E-04
DAV:  11    -0.137301006106E+04   -0.37607E-06   -0.11631E-08  3616   0.122E-04    0.102E-04
DAV:  12    -0.137301006139E+04   -0.32908E-06   -0.93323E-09  3456   0.116E-04    0.575E-05
DAV:  13    -0.137301006158E+04   -0.18736E-06   -0.51285E-09  3296   0.895E-05    0.383E-05
DAV:  14    -0.137301006170E+04   -0.11512E-06   -0.26635E-09  3200   0.683E-05    0.206E-05
DAV:  15    -0.137301006176E+04   -0.62253E-07   -0.21865E-09  3200   0.693E-05    0.203E-05
DAV:  16    -0.137301006177E+04   -0.16356E-07   -0.44279E-10  3072   0.475E-05    0.151E-05
DAV:  17    -0.137301006179E+04   -0.12340E-07    0.17943E-11  3008   0.311E-05    0.102E-05
DAV:  18    -0.137301006179E+04   -0.11642E-09    0.57681E-10  3072   0.175E-05
  24 F= -.13921303E+04 E0= -.13921303E+04  d E =0.841906E-03  mag=     0.0000
       N       E                     dE             d eps       ncg     rms          rms(c)
DAV:   1    -0.137301060930E+04   -0.54751E-03   -0.86462E-02  4448   0.157E-01    0.145E-01
DAV:   2    -0.137301038686E+04    0.22244E-03   -0.18750E-03  4480   0.267E-02    0.819E-02
DAV:   3    -0.137301032570E+04    0.61160E-04   -0.10261E-03  4800   0.172E-02    0.301E-02
DAV:   4    -0.137301030795E+04    0.17746E-04   -0.10254E-04  4512   0.559E-03    0.191E-02
DAV:   5    -0.137301030614E+04    0.18087E-05   -0.32013E-05  5408   0.309E-03    0.342E-03
DAV:   6    -0.137301030623E+04   -0.87224E-07   -0.23974E-06  4544   0.954E-04    0.120E-03
DAV:   7    -0.137301030653E+04   -0.29523E-06   -0.44760E-07  5056   0.403E-04    0.978E-04
DAV:   8    -0.137301030681E+04   -0.28490E-06   -0.50661E-08  3968   0.194E-04    0.353E-04
DAV:   9    -0.137301030713E+04   -0.31838E-06   -0.40393E-08  3904   0.152E-04    0.256E-04
DAV:  10    -0.137301030751E+04   -0.38184E-06   -0.18590E-08  3776   0.138E-04    0.112E-04
DAV:  11    -0.137301030770E+04   -0.18615E-06   -0.10605E-08  3648   0.106E-04    0.956E-05
DAV:  12    -0.137301030786E+04   -0.15814E-06   -0.54509E-09  3360   0.913E-05    0.535E-05
DAV:  13    -0.137301030801E+04   -0.15208E-06   -0.69815E-09  3648   0.796E-05    0.490E-05
DAV:  14    -0.137301030806E+04   -0.46552E-07   -0.96367E-10  3072   0.533E-05    0.279E-05
DAV:  15    -0.137301030816E+04   -0.10067E-06   -0.35388E-09  3328   0.627E-05    0.281E-05
DAV:  16    -0.137301030817E+04   -0.15090E-07   -0.27399E-10  3072   0.429E-05    0.190E-05
DAV:  17    -0.137301030819E+04   -0.17448E-07    0.14009E-10  3072   0.287E-05    0.148E-05
DAV:  18    -0.137301030821E+04   -0.20606E-07    0.27692E-10  3072   0.264E-05    0.165E-05
DAV:  19    -0.137301030821E+04   -0.50059E-08    0.58902E-10  2944   0.153E-05
  25 F= -.13921306E+04 E0= -.13921306E+04  d E =-.318050E-03  mag=    -0.0000
       N       E                     dE             d eps       ncg     rms          rms(c)
DAV:   1    -0.137301088294E+04   -0.57473E-03   -0.74310E-02  4416   0.166E-01    0.902E-02
DAV:   2    -0.137301089378E+04   -0.10843E-04   -0.79216E-04  4736   0.165E-02    0.561E-02
DAV:   3    -0.137301088201E+04    0.11772E-04   -0.24676E-04  4704   0.894E-03    0.138E-02
DAV:   4    -0.137301087940E+04    0.26110E-05   -0.24107E-05  4416   0.290E-03    0.890E-03
DAV:   5    -0.137301087832E+04    0.10740E-05   -0.13556E-05  4480   0.201E-03    0.185E-03
DAV:   6    -0.137301087855E+04   -0.22676E-06   -0.85700E-07  4448   0.609E-04    0.109E-03
DAV:   7    -0.137301087879E+04   -0.24297E-06   -0.19369E-07  4256   0.316E-04    0.500E-04
DAV:   8    -0.137301087900E+04   -0.21137E-06   -0.44445E-08  3808   0.171E-04    0.269E-04
DAV:   9    -0.137301087925E+04   -0.24268E-06   -0.30652E-08  3968   0.148E-04    0.191E-04
DAV:  10    -0.137301087942E+04   -0.16947E-06   -0.11151E-08  3680   0.129E-04    0.108E-04
DAV:  11    -0.137301087952E+04   -0.10697E-06   -0.87787E-09  3648   0.123E-04    0.600E-05
DAV:  12    -0.137301087960E+04   -0.76368E-07   -0.61283E-09  3392   0.137E-04    0.441E-05
DAV:  13    -0.137301087965E+04   -0.53216E-07   -0.53347E-09  3392   0.120E-04    0.337E-05
DAV:  14    -0.137301087967E+04   -0.19543E-07   -0.14001E-09  3136   0.679E-05    0.226E-05
DAV:  15    -0.137301087969E+04   -0.17812E-07   -0.55541E-10  3072   0.421E-05    0.140E-05
DAV:  16    -0.137301087970E+04   -0.96479E-08    0.23494E-11  3072   0.297E-05
  26 F= -.13921312E+04 E0= -.13921312E+04  d E =-.579589E-03  mag=    -0.0000
       N       E                     dE             d eps       ncg     rms          rms(c)
DAV:   1    -0.137301066849E+04    0.21120E-03   -0.73662E-02  4448   0.164E-01    0.859E-02
DAV:   2    -0.137301067110E+04   -0.26013E-05   -0.59468E-04  4544   0.144E-02    0.513E-02
DAV:   3    -0.137301066800E+04    0.30915E-05   -0.17775E-04  4704   0.770E-03    0.120E-02
DAV:   4    -0.137301066516E+04    0.28461E-05   -0.17959E-05  4544   0.253E-03    0.732E-03
DAV:   5    -0.137301066467E+04    0.48504E-06   -0.10087E-05  4576   0.171E-03    0.157E-03
DAV:   6    -0.137301066477E+04   -0.98764E-07   -0.67347E-07  4416   0.569E-04    0.848E-04
DAV:   7    -0.137301066489E+04   -0.11797E-06   -0.85442E-08  4096   0.240E-04    0.370E-04
DAV:   8    -0.137301066504E+04   -0.15312E-06   -0.29728E-08  3936   0.159E-04    0.198E-04
DAV:   9    -0.137301066519E+04   -0.14555E-06   -0.12101E-08  3776   0.140E-04    0.107E-04
DAV:  10    -0.137301066530E+04   -0.11432E-06   -0.66088E-09  3472   0.117E-04    0.704E-05
DAV:  11    -0.137301066539E+04   -0.84066E-07   -0.50144E-09  3472   0.978E-05    0.486E-05
DAV:  12    -0.137301066544E+04   -0.57888E-07   -0.39436E-09  3328   0.981E-05    0.280E-05
DAV:  13    -0.137301066549E+04   -0.45286E-07   -0.35234E-09  3200   0.897E-05    0.227E-05
DAV:  14    -0.137301066552E+04   -0.26528E-07   -0.13333E-09  3072   0.571E-05    0.196E-05
DAV:  15    -0.137301066553E+04   -0.15672E-07   -0.28041E-10  3072   0.340E-05    0.963E-06
DAV:  16    -0.137301066554E+04   -0.71741E-08    0.19426E-10  3072   0.245E-05
  27 F= -.13921311E+04 E0= -.13921311E+04  d E =0.125718E-03  mag=     0.0000
       N       E                     dE             d eps       ncg     rms          rms(c)
DAV:   1    -0.137300982801E+04    0.83752E-03   -0.75294E-02  4640   0.164E-01    0.940E-02
DAV:   2    -0.137300980194E+04    0.26074E-04   -0.66187E-04  4448   0.155E-02    0.561E-02
DAV:   3    -0.137300979301E+04    0.89251E-05   -0.28860E-04  4800   0.977E-03    0.162E-02
DAV:   4    -0.137300978721E+04    0.58068E-05   -0.31600E-05  4352   0.320E-03    0.103E-02
DAV:   5    -0.137300978611E+04    0.10973E-05   -0.14833E-05  4640   0.201E-03    0.176E-03
DAV:   6    -0.137300978627E+04   -0.15789E-06   -0.71842E-07  4352   0.530E-04    0.940E-04
DAV:   7    -0.137300978644E+04   -0.16937E-06   -0.13244E-07  4064   0.241E-04    0.484E-04
DAV:   8    -0.137300978668E+04   -0.24641E-06   -0.33765E-08  3840   0.157E-04    0.242E-04
DAV:   9    -0.137300978697E+04   -0.29152E-06   -0.28222E-08  3840   0.149E-04    0.163E-04
DAV:  10    -0.137300978718E+04   -0.20165E-06   -0.92169E-09  3520   0.104E-04    0.108E-04
DAV:  11    -0.137300978732E+04   -0.14019E-06   -0.70648E-09  3520   0.967E-05    0.422E-05
DAV:  12    -0.137300978740E+04   -0.85871E-07   -0.37054E-09  3200   0.875E-05    0.380E-05
DAV:  13    -0.137300978748E+04   -0.75554E-07   -0.31781E-09  3200   0.811E-05    0.270E-05
DAV:  14    -0.137300978751E+04   -0.36933E-07   -0.11195E-09  3072   0.530E-05    0.159E-05
DAV:  15    -0.137300978754E+04   -0.29890E-07   -0.33819E-10  3040   0.320E-05    0.992E-06
DAV:  16    -0.137300978756E+04   -0.12238E-07    0.19085E-10  3040   0.258E-05    0.116E-05
DAV:  17    -0.137300978756E+04   -0.51950E-08    0.53434E-10  3040   0.157E-05
  28 F= -.13921300E+04 E0= -.13921300E+04  d E =0.109367E-02  mag=     0.0000
       N       E                     dE             d eps       ncg     rms          rms(c)
DAV:   1    -0.137300976572E+04    0.21840E-04   -0.82851E-02  5152   0.172E-01    0.134E-01
DAV:   2    -0.137300960863E+04    0.15708E-03   -0.17712E-03  5344   0.279E-02    0.790E-02
DAV:   3    -0.137300955346E+04    0.55173E-04   -0.71566E-04  5632   0.161E-02    0.282E-02
DAV:   4    -0.137300954222E+04    0.11245E-04   -0.78800E-05  5664   0.560E-03    0.155E-02
DAV:   5    -0.137300954244E+04   -0.22487E-06   -0.14065E-05  5280   0.239E-03    0.332E-03
DAV:   6    -0.137300954242E+04    0.17826E-07   -0.15227E-06  5152   0.844E-04    0.145E-03
DAV:   7    -0.137300954260E+04   -0.17279E-06   -0.24591E-07  4864   0.351E-04    0.502E-04
DAV:   8    -0.137300954273E+04   -0.13695E-06   -0.28075E-08  3776   0.166E-04    0.241E-04
DAV:   9    -0.137300954289E+04   -0.15521E-06   -0.10122E-08  3680   0.120E-04    0.137E-04
DAV:  10    -0.137300954303E+04   -0.14312E-06   -0.69873E-09  3552   0.105E-04    0.801E-05
DAV:  11    -0.137300954315E+04   -0.11839E-06   -0.56943E-09  3424   0.938E-05    0.487E-05
DAV:  12    -0.137300954322E+04   -0.75102E-07   -0.34171E-09  3328   0.833E-05    0.353E-05
DAV:  13    -0.137300954328E+04   -0.58601E-07   -0.35254E-09  3296   0.894E-05    0.223E-05
DAV:  14    -0.137300954330E+04   -0.20897E-07   -0.17771E-09  3136   0.754E-05    0.152E-05
DAV:  15    -0.137300954332E+04   -0.20053E-07   -0.54266E-10  3072   0.393E-05    0.963E-06
DAV:  16    -0.137300954333E+04   -0.86729E-08    0.10526E-10  3072   0.256E-05
  29 F= -.13921299E+04 E0= -.13921299E+04  d E =0.301348E-04  mag=    -0.0000
       N       E                     dE             d eps       ncg     rms          rms(c)
DAV:   1    -0.137301097993E+04   -0.14366E-02   -0.80026E-02  5088   0.133E-01    0.127E-01
DAV:   2    -0.137301079695E+04    0.18298E-03   -0.11075E-03  5600   0.206E-02    0.689E-02
DAV:   3    -0.137301076676E+04    0.30195E-04   -0.33672E-04  5888   0.109E-02    0.234E-02
DAV:   4    -0.137301076433E+04    0.24251E-05   -0.36441E-05  5952   0.392E-03    0.107E-02
DAV:   5    -0.137301076508E+04   -0.74848E-06   -0.54519E-06  5824   0.159E-03    0.328E-03
DAV:   6    -0.137301076507E+04    0.70868E-08   -0.13122E-06  5376   0.730E-04    0.143E-03
DAV:   7    -0.137301076524E+04   -0.16321E-06   -0.20020E-07  4576   0.303E-04    0.584E-04
DAV:   8    -0.137301076539E+04   -0.15517E-06   -0.49464E-08  4000   0.144E-04    0.272E-04
DAV:   9    -0.137301076551E+04   -0.12148E-06   -0.13257E-08  3776   0.947E-05    0.139E-04
DAV:  10    -0.137301076565E+04   -0.13213E-06   -0.70349E-09  3584   0.766E-05    0.108E-04
DAV:  11    -0.137301076575E+04   -0.10779E-06   -0.36234E-09  3296   0.623E-05    0.552E-05
DAV:  12    -0.137301076584E+04   -0.90004E-07   -0.43612E-09  3424   0.671E-05    0.440E-05
DAV:  13    -0.137301076590E+04   -0.57116E-07   -0.24590E-09  3136   0.602E-05    0.392E-05
DAV:  14    -0.137301076593E+04   -0.29293E-07   -0.12309E-09  3136   0.418E-05    0.199E-05
DAV:  15    -0.137301076595E+04   -0.15745E-07   -0.55735E-10  3072   0.333E-05    0.134E-05
DAV:  16    -0.137301076595E+04   -0.71450E-08   -0.60683E-11  3136   0.261E-05
  30 F= -.13921310E+04 E0= -.13921310E+04  d E =-.109910E-02  mag=     0.0000
       N       E                     dE             d eps       ncg     rms          rms(c)
DAV:   1    -0.137301088522E+04   -0.11927E-03   -0.71263E-02  5088   0.128E-01    0.912E-02
DAV:   2    -0.137301085528E+04    0.29940E-04   -0.52495E-04  5312   0.130E-02    0.534E-02
DAV:   3    -0.137301084766E+04    0.76177E-05   -0.13798E-04  5600   0.708E-03    0.110E-02
DAV:   4    -0.137301084656E+04    0.10980E-05   -0.13969E-05  5408   0.248E-03    0.599E-03
DAV:   5    -0.137301084654E+04    0.24447E-07   -0.35153E-06  5216   0.123E-03    0.153E-03
DAV:   6    -0.137301084662E+04   -0.79963E-07   -0.33554E-07  4320   0.384E-04    0.778E-04
DAV:   7    -0.137301084674E+04   -0.11789E-06   -0.61663E-08  4384   0.187E-04    0.303E-04
DAV:   8    -0.137301084686E+04   -0.12745E-06   -0.13498E-08  3776   0.119E-04    0.154E-04
DAV:   9    -0.137301084699E+04   -0.12969E-06   -0.70181E-09  3552   0.946E-05    0.944E-05
DAV:  10    -0.137301084711E+04   -0.12168E-06   -0.58158E-09  3488   0.896E-05    0.633E-05
DAV:  11    -0.137301084721E+04   -0.99390E-07   -0.48786E-09  3392   0.870E-05    0.412E-05
DAV:  12    -0.137301084727E+04   -0.59474E-07   -0.34333E-09  3136   0.814E-05    0.305E-05
DAV:  13    -0.137301084731E+04   -0.40731E-07   -0.30166E-09  3136   0.739E-05    0.218E-05
DAV:  14    -0.137301084733E+04   -0.17986E-07   -0.14347E-09  3072   0.529E-05    0.127E-05
DAV:  15    -0.137301084734E+04   -0.84401E-08   -0.42010E-10  3104   0.355E-05
  31 F= -.13921310E+04 E0= -.13921310E+04  d E =-.763877E-05  mag=    -0.0000
       N       E                     dE             d eps       ncg     rms          rms(c)
DAV:   1    -0.137301060646E+04    0.24087E-03   -0.71203E-02  5120   0.165E-01    0.830E-02
DAV:   2    -0.137301062213E+04   -0.15676E-04   -0.60977E-04  5536   0.144E-02    0.506E-02
DAV:   3    -0.137301062252E+04   -0.38896E-06   -0.10017E-04  5536   0.639E-03    0.797E-03
DAV:   4    -0.137301062185E+04    0.67035E-06   -0.11170E-05  5344   0.211E-03    0.489E-03
DAV:   5    -0.137301062180E+04    0.48371E-07   -0.29374E-06  5056   0.105E-03    0.147E-03
DAV:   6    -0.137301062200E+04   -0.19743E-06   -0.25257E-07  4384   0.343E-04    0.742E-04
DAV:   7    -0.137301062226E+04   -0.25966E-06   -0.65328E-08  4256   0.199E-04    0.276E-04
DAV:   8    -0.137301062249E+04   -0.22665E-06   -0.21150E-08  4000   0.135E-04    0.159E-04
DAV:   9    -0.137301062272E+04   -0.23108E-06   -0.10261E-08  3712   0.119E-04    0.986E-05
DAV:  10    -0.137301062293E+04   -0.21042E-06   -0.10330E-08  3744   0.123E-04    0.615E-05
DAV:  11    -0.137301062307E+04   -0.14264E-06   -0.85047E-09  3616   0.131E-04    0.449E-05
DAV:  12    -0.137301062316E+04   -0.94078E-07   -0.60016E-09  3488   0.121E-04    0.312E-05
DAV:  13    -0.137301062323E+04   -0.68118E-07   -0.33303E-09  3200   0.884E-05    0.199E-05
DAV:  14    -0.137301062328E+04   -0.47919E-07   -0.19045E-09  3136   0.637E-05    0.122E-05
DAV:  15    -0.137301062330E+04   -0.15847E-07   -0.18180E-10  3072   0.337E-05    0.990E-06
DAV:  16    -0.137301062331E+04   -0.10725E-07    0.29255E-10  3072   0.226E-05    0.639E-06
DAV:  17    -0.137301062332E+04   -0.10783E-07    0.49887E-10  3072   0.169E-05    0.470E-06
DAV:  18    -0.137301062332E+04   -0.45256E-08    0.70097E-10  2912   0.112E-05
  32 F= -.13921309E+04 E0= -.13921309E+04  d E =0.103613E-03  mag=    -0.0000
       N       E                     dE             d eps       ncg     rms          rms(c)
DAV:   1    -0.137301068457E+04   -0.61254E-04   -0.74506E-02  4384   0.166E-01    0.878E-02
DAV:   2    -0.137301067647E+04    0.81024E-05   -0.61888E-04  4608   0.142E-02    0.527E-02
DAV:   3    -0.137301067183E+04    0.46400E-05   -0.20488E-04  4800   0.819E-03    0.129E-02
DAV:   4    -0.137301066863E+04    0.31987E-05   -0.21819E-05  4512   0.277E-03    0.823E-03
DAV:   5    -0.137301066859E+04    0.41138E-07   -0.12918E-05  4480   0.193E-03    0.164E-03
DAV:   6    -0.137301066903E+04   -0.43795E-06   -0.92200E-07  4416   0.600E-04    0.882E-04
DAV:   7    -0.137301066979E+04   -0.76483E-06   -0.11114E-07  4448   0.233E-04    0.369E-04
DAV:   8    -0.137301067054E+04   -0.74513E-06   -0.53147E-08  4192   0.153E-04    0.235E-04
DAV:   9    -0.137301067125E+04   -0.71595E-06   -0.30248E-08  4112   0.135E-04    0.128E-04
DAV:  10    -0.137301067188E+04   -0.62757E-06   -0.28119E-08  4064   0.139E-04    0.100E-04
DAV:  11    -0.137301067219E+04   -0.30757E-06   -0.94236E-09  3648   0.110E-04    0.667E-05
DAV:  12    -0.137301067246E+04   -0.27321E-06   -0.76065E-09  3552   0.863E-05    0.365E-05
DAV:  13    -0.137301067266E+04   -0.20042E-06   -0.58908E-09  3552   0.748E-05    0.343E-05
DAV:  14    -0.137301067274E+04   -0.80472E-07   -0.19505E-09  3136   0.683E-05    0.193E-05
DAV:  15    -0.137301067279E+04   -0.48094E-07   -0.13588E-09  3040   0.556E-05    0.125E-05
DAV:  16    -0.137301067281E+04   -0.20780E-07   -0.71448E-11  3120   0.340E-05    0.118E-05
DAV:  17    -0.137301067282E+04   -0.89058E-08    0.35592E-10  3008   0.220E-05
  33 F= -.13921311E+04 E0= -.13921311E+04  d E =-.174886E-03  mag=     0.0000
       N       E                     dE             d eps       ncg     rms          rms(c)
DAV:   1    -0.137300983570E+04    0.83711E-03   -0.75307E-02  4352   0.167E-01    0.942E-02
DAV:   2    -0.137300980589E+04    0.29810E-04   -0.69734E-04  4608   0.155E-02    0.549E-02
DAV:   3    -0.137300979580E+04    0.10087E-04   -0.24428E-04  5536   0.902E-03    0.144E-02
DAV:   4    -0.137300979149E+04    0.43170E-05   -0.27575E-05  4576   0.314E-03    0.871E-03
DAV:   5    -0.137300979123E+04    0.25948E-06   -0.10477E-05  4800   0.193E-03    0.160E-03
DAV:   6    -0.137300979142E+04   -0.19309E-06   -0.70341E-07  4480   0.548E-04    0.919E-04
DAV:   7    -0.137300979167E+04   -0.25248E-06   -0.98019E-08  4800   0.243E-04    0.395E-04
DAV:   8    -0.137300979193E+04   -0.26074E-06   -0.24639E-08  3888   0.142E-04    0.206E-04
DAV:   9    -0.137300979217E+04   -0.24059E-06   -0.10280E-08  3648   0.997E-05    0.100E-04
DAV:  10    -0.137300979237E+04   -0.19837E-06   -0.71796E-09  3584   0.990E-05    0.876E-05
DAV:  11    -0.137300979250E+04   -0.13114E-06   -0.42124E-09  3360   0.856E-05    0.563E-05
DAV:  12    -0.137300979264E+04   -0.13325E-06   -0.54205E-09  3488   0.817E-05    0.332E-05
DAV:  13    -0.137300979272E+04   -0.78944E-07   -0.27006E-09  3232   0.628E-05    0.282E-05
DAV:  14    -0.137300979275E+04   -0.39654E-07   -0.13025E-09  3072   0.491E-05    0.149E-05
DAV:  15    -0.137300979278E+04   -0.22425E-07   -0.51022E-10  3072   0.375E-05    0.112E-05
DAV:  16    -0.137300979279E+04   -0.83091E-08    0.95798E-11  3072   0.249E-05
  34 F= -.13921302E+04 E0= -.13921302E+04  d E =0.868388E-03  mag=     0.0000
       N       E                     dE             d eps       ncg     rms          rms(c)
DAV:   1    -0.137300988027E+04   -0.87491E-04   -0.83890E-02  5248   0.177E-01    0.136E-01
DAV:   2    -0.137300973803E+04    0.14224E-03   -0.19859E-03  5312   0.300E-02    0.799E-02
DAV:   3    -0.137300968302E+04    0.55005E-04   -0.72092E-04  5632   0.163E-02    0.273E-02
DAV:   4    -0.137300967347E+04    0.95583E-05   -0.71891E-05  5728   0.558E-03    0.150E-02
DAV:   5    -0.137300967353E+04   -0.65280E-07   -0.13991E-05  5952   0.260E-03    0.359E-03
DAV:   6    -0.137300967352E+04    0.76689E-08   -0.18443E-06  5504   0.986E-04    0.141E-03
DAV:   7    -0.137300967366E+04   -0.14015E-06   -0.24744E-07  4896   0.352E-04    0.624E-04
DAV:   8    -0.137300967384E+04   -0.17512E-06   -0.34069E-08  4000   0.171E-04    0.288E-04
DAV:   9    -0.137300967402E+04   -0.18199E-06   -0.14241E-08  3776   0.112E-04    0.154E-04
DAV:  10    -0.137300967423E+04   -0.21244E-06   -0.10061E-08  3808   0.840E-05    0.106E-04
DAV:  11    -0.137300967441E+04   -0.17590E-06   -0.49143E-09  3360   0.661E-05    0.621E-05
DAV:  12    -0.137300967457E+04   -0.15635E-06   -0.65968E-09  3680   0.650E-05    0.516E-05
DAV:  13    -0.137300967465E+04   -0.86657E-07   -0.24884E-09  3072   0.665E-05    0.325E-05
DAV:  14    -0.137300967472E+04   -0.69049E-07   -0.34425E-09  3360   0.656E-05    0.302E-05
DAV:  15    -0.137300967474E+04   -0.17157E-07   -0.62109E-10  3136   0.451E-05    0.226E-05
DAV:  16    -0.137300967476E+04   -0.24243E-07   -0.85361E-10  3072   0.448E-05    0.278E-05
DAV:  17    -0.137300967477E+04   -0.37980E-08    0.18318E-10  3136   0.311E-05
  35 F= -.13921300E+04 E0= -.13921300E+04  d E =0.238483E-03  mag=    -0.0000
       N       E                     dE             d eps       ncg     rms          rms(c)
DAV:   1    -0.137301096686E+04   -0.12921E-02   -0.80772E-02  5280   0.133E-01    0.129E-01
DAV:   2    -0.137301077908E+04    0.18778E-03   -0.12660E-03  5664   0.218E-02    0.712E-02
DAV:   3    -0.137301074017E+04    0.38916E-04   -0.38425E-04  5984   0.115E-02    0.238E-02
DAV:   4    -0.137301073724E+04    0.29221E-05   -0.40412E-05  5824   0.424E-03    0.119E-02
DAV:   5    -0.137301073766E+04   -0.41207E-06   -0.61902E-06  5792   0.176E-03    0.355E-03
DAV:   6    -0.137301073761E+04    0.47643E-07   -0.15603E-06  5344   0.820E-04    0.146E-03
DAV:   7    -0.137301073774E+04   -0.12697E-06   -0.22670E-07  4640   0.317E-04    0.609E-04
DAV:   8    -0.137301073786E+04   -0.12123E-06   -0.44092E-08  3936   0.139E-04    0.291E-04
DAV:   9    -0.137301073795E+04   -0.92215E-07   -0.12965E-08  3552   0.102E-04    0.129E-04
DAV:  10    -0.137301073803E+04   -0.83252E-07   -0.72247E-09  3616   0.922E-05    0.107E-04
DAV:  11    -0.137301073810E+04   -0.69485E-07   -0.39352E-09  3232   0.925E-05    0.441E-05
DAV:  12    -0.137301073815E+04   -0.48953E-07   -0.52258E-09  3392   0.105E-04    0.414E-05
DAV:  13    -0.137301073818E+04   -0.27765E-07   -0.28008E-09  3072   0.854E-05    0.317E-05
DAV:  14    -0.137301073820E+04   -0.24738E-07   -0.15558E-09  3072   0.502E-05    0.121E-05
DAV:  15    -0.137301073821E+04   -0.87603E-08   -0.28749E-10  3136   0.321E-05
  36 F= -.13921311E+04 E0= -.13921311E+04  d E =-.106579E-02  mag=    -0.0000
       N       E                     dE             d eps       ncg     rms          rms(c)
DAV:   1    -0.137301095795E+04   -0.21975E-03   -0.71216E-02  5088   0.130E-01    0.903E-02
DAV:   2    -0.137301093106E+04    0.26891E-04   -0.52513E-04  5408   0.128E-02    0.528E-02
DAV:   3    -0.137301092471E+04    0.63496E-05   -0.13476E-04  5888   0.688E-03    0.116E-02
DAV:   4    -0.137301092374E+04    0.96766E-06   -0.13907E-05  5568   0.259E-03    0.596E-03
DAV:   5    -0.137301092395E+04   -0.20608E-06   -0.31944E-06  6112   0.125E-03    0.161E-03
DAV:   6    -0.137301092412E+04   -0.17497E-06   -0.30483E-07  4608   0.413E-04    0.741E-04
DAV:   7    -0.137301092433E+04   -0.20675E-06   -0.63592E-08  4736   0.204E-04    0.317E-04
DAV:   8    -0.137301092454E+04   -0.20672E-06   -0.14191E-08  3696   0.133E-04    0.177E-04
DAV:   9    -0.137301092475E+04   -0.21578E-06   -0.11828E-08  3744   0.123E-04    0.105E-04
DAV:  10    -0.137301092494E+04   -0.19016E-06   -0.10631E-08  3760   0.122E-04    0.737E-05
DAV:  11    -0.137301092508E+04   -0.13754E-06   -0.10249E-08  3648   0.144E-04    0.481E-05
DAV:  12    -0.137301092515E+04   -0.71203E-07   -0.64345E-09  3264   0.128E-04    0.368E-05
DAV:  13    -0.137301092521E+04   -0.55734E-07   -0.31756E-09  3136   0.762E-05    0.189E-05
DAV:  14    -0.137301092523E+04   -0.23821E-07   -0.15831E-09  3072   0.557E-05    0.141E-05
DAV:  15    -0.137301092524E+04   -0.84838E-08   -0.44643E-10  3104   0.383E-05
  37 F= -.13921310E+04 E0= -.13921310E+04  d E =0.352929E-04  mag=    -0.0000
       N       E                     dE             d eps       ncg     rms          rms(c)
DAV:   1    -0.137301058536E+04    0.33987E-03   -0.71144E-02  5056   0.154E-01    0.860E-02
DAV:   2    -0.137301058537E+04   -0.14639E-07   -0.65068E-04  5568   0.147E-02    0.529E-02
DAV:   3    -0.137301058444E+04    0.93227E-06   -0.19001E-04  5888   0.771E-03    0.128E-02
DAV:   4    -0.137301058087E+04    0.35734E-05   -0.21749E-05  5056   0.258E-03    0.814E-03
DAV:   5    -0.137301058089E+04   -0.25015E-07   -0.11197E-05  5344   0.177E-03    0.160E-03
DAV:   6    -0.137301058163E+04   -0.73554E-06   -0.84723E-07  4608   0.590E-04    0.889E-04
DAV:   7    -0.137301058254E+04   -0.90901E-06   -0.93600E-08  4192   0.216E-04    0.477E-04
DAV:   8    -0.137301058369E+04   -0.11542E-05   -0.62381E-08  4320   0.170E-04    0.237E-04
DAV:   9    -0.137301058463E+04   -0.93556E-06   -0.34682E-08  4096   0.143E-04    0.155E-04
DAV:  10    -0.137301058549E+04   -0.86287E-06   -0.34887E-08  4160   0.151E-04    0.117E-04
DAV:  11    -0.137301058601E+04   -0.51930E-06   -0.20045E-08  3904   0.140E-04    0.687E-05
DAV:  12    -0.137301058626E+04   -0.25482E-06   -0.73875E-09  3584   0.111E-04    0.525E-05
DAV:  13    -0.137301058651E+04   -0.24294E-06   -0.88969E-09  3712   0.103E-04    0.391E-05
DAV:  14    -0.137301058658E+04   -0.75117E-07   -0.20294E-09  3136   0.723E-05    0.253E-05
DAV:  15    -0.137301058665E+04   -0.65018E-07   -0.14187E-09  3072   0.525E-05    0.152E-05
DAV:  16    -0.137301058667E+04   -0.25699E-07   -0.51928E-10  3072   0.466E-05    0.196E-05
DAV:  17    -0.137301058668E+04   -0.76252E-08    0.33260E-10  3072   0.244E-05
  38 F= -.13921309E+04 E0= -.13921309E+04  d E =0.169550E-03  mag=    -0.0000
       N       E                     dE             d eps       ncg     rms          rms(c)
DAV:   1    -0.137301068077E+04   -0.94102E-04   -0.75224E-02  4736   0.146E-01    0.101E-01
DAV:   2    -0.137301060668E+04    0.74095E-04   -0.70705E-04  5248   0.153E-02    0.580E-02
DAV:   3    -0.137301059605E+04    0.10631E-04   -0.33603E-04  5280   0.929E-03    0.175E-02
DAV:   4    -0.137301059016E+04    0.58912E-05   -0.33083E-05  4960   0.318E-03    0.111E-02
DAV:   5    -0.137301059057E+04   -0.41800E-06   -0.13579E-05  5056   0.191E-03    0.194E-03
DAV:   6    -0.137301059118E+04   -0.60054E-06   -0.78749E-07  4576   0.537E-04    0.105E-03
DAV:   7    -0.137301059205E+04   -0.87537E-06   -0.19489E-07  4416   0.258E-04    0.668E-04
DAV:   8    -0.137301059284E+04   -0.78820E-06   -0.45065E-08  3904   0.157E-04    0.284E-04
DAV:   9    -0.137301059355E+04   -0.70965E-06   -0.36227E-08  4064   0.127E-04    0.197E-04
DAV:  10    -0.137301059423E+04   -0.68467E-06   -0.25861E-08  4048   0.122E-04    0.115E-04
DAV:  11    -0.137301059463E+04   -0.39802E-06   -0.15257E-08  3824   0.117E-04    0.683E-05
DAV:  12    -0.137301059489E+04   -0.25795E-06   -0.79824E-09  3616   0.939E-05    0.613E-05
DAV:  13    -0.137301059508E+04   -0.18849E-06   -0.60866E-09  3520   0.733E-05    0.397E-05
DAV:  14    -0.137301059518E+04   -0.10153E-06   -0.28323E-09  3200   0.696E-05    0.195E-05
DAV:  15    -0.137301059523E+04   -0.48298E-07   -0.18102E-09  3136   0.605E-05    0.240E-05
DAV:  16    -0.137301059525E+04   -0.18816E-07   -0.19502E-10  3136   0.360E-05    0.178E-05
DAV:  17    -0.137301059526E+04   -0.14828E-07    0.16358E-10  3008   0.268E-05    0.904E-06
DAV:  18    -0.137301059527E+04   -0.65920E-08    0.52468E-10  3072   0.178E-05
  39 F= -.13921309E+04 E0= -.13921309E+04  d E =-.535051E-04  mag=    -0.0000
       N       E                     dE             d eps       ncg     rms          rms(c)
DAV:   1    -0.137300994010E+04    0.65516E-03   -0.71682E-02  4704   0.144E-01    0.801E-02
DAV:   2    -0.137300994464E+04   -0.45405E-05   -0.45431E-04  5280   0.112E-02    0.485E-02
DAV:   3    -0.137300994420E+04    0.43813E-06   -0.14187E-04  5760   0.629E-03    0.108E-02
DAV:   4    -0.137300994202E+04    0.21746E-05   -0.14599E-05  4704   0.207E-03    0.703E-03
DAV:   5    -0.137300994260E+04   -0.57716E-06   -0.96070E-06  4976   0.155E-03    0.150E-03
DAV:   6    -0.137300994326E+04   -0.65711E-06   -0.73898E-07  4512   0.528E-04    0.870E-04
DAV:   7    -0.137300994416E+04   -0.90370E-06   -0.95257E-08  4224   0.227E-04    0.466E-04
DAV:   8    -0.137300994522E+04   -0.10576E-05   -0.67805E-08  4160   0.159E-04    0.283E-04
DAV:   9    -0.137300994620E+04   -0.97849E-06   -0.53722E-08  4256   0.147E-04    0.203E-04
DAV:  10    -0.137300994683E+04   -0.63630E-06   -0.26215E-08  3904   0.133E-04    0.141E-04
DAV:  11    -0.137300994721E+04   -0.37238E-06   -0.14687E-08  3712   0.106E-04    0.776E-05
DAV:  12    -0.137300994742E+04   -0.21400E-06   -0.66447E-09  3488   0.904E-05    0.573E-05
DAV:  13    -0.137300994761E+04   -0.19172E-06   -0.78443E-09  3744   0.813E-05    0.455E-05
DAV:  14    -0.137300994768E+04   -0.64581E-07   -0.16619E-09  3072   0.596E-05    0.250E-05
DAV:  15    -0.137300994772E+04   -0.46159E-07   -0.14922E-09  3072   0.548E-05    0.192E-05
DAV:  16    -0.137300994774E+04   -0.18947E-07   -0.42079E-10  3072   0.418E-05    0.208E-05
DAV:  17    -0.137300994775E+04   -0.10710E-07    0.22133E-10  3072   0.246E-05    0.112E-05
DAV:  18    -0.137300994776E+04   -0.60827E-08    0.36240E-10  3072   0.205E-05
  40 F= -.13921302E+04 E0= -.13921302E+04  d E =0.675932E-03  mag=    -0.0000
       N       E                     dE             d eps       ncg     rms          rms(c)
DAV:   1    -0.137301087311E+04   -0.92535E-03   -0.75407E-02  5024   0.153E-01    0.101E-01
DAV:   2    -0.137301085043E+04    0.22678E-04   -0.99555E-04  5408   0.187E-02    0.612E-02
DAV:   3    -0.137301083766E+04    0.12763E-04   -0.35489E-04  5664   0.981E-03    0.186E-02
DAV:   4    -0.137301083207E+04    0.55949E-05   -0.33064E-05  4896   0.309E-03    0.119E-02
DAV:   5    -0.137301083108E+04    0.98534E-06   -0.18417E-05  5248   0.212E-03    0.193E-03
DAV:   6    -0.137301083137E+04   -0.28167E-06   -0.11627E-06  4512   0.624E-04    0.980E-04
DAV:   7    -0.137301083162E+04   -0.25981E-06   -0.12963E-07  4224   0.246E-04    0.507E-04
DAV:   8    -0.137301083189E+04   -0.26324E-06   -0.31257E-08  3840   0.129E-04    0.265E-04
DAV:   9    -0.137301083213E+04   -0.23743E-06   -0.13960E-08  3712   0.942E-05    0.113E-04
DAV:  10    -0.137301083234E+04   -0.21537E-06   -0.74515E-09  3520   0.743E-05    0.112E-04
DAV:  11    -0.137301083251E+04   -0.16777E-06   -0.66589E-09  3520   0.752E-05    0.586E-05
DAV:  12    -0.137301083260E+04   -0.92929E-07   -0.38264E-09  3264   0.716E-05    0.456E-05
DAV:  13    -0.137301083268E+04   -0.81243E-07   -0.39549E-09  3328   0.732E-05    0.426E-05
DAV:  14    -0.137301083272E+04   -0.32305E-07   -0.15002E-09  3136   0.574E-05    0.244E-05
DAV:  15    -0.137301083274E+04   -0.25801E-07   -0.81093E-10  3072   0.364E-05    0.122E-05
DAV:  16    -0.137301083275E+04   -0.98662E-08   -0.15893E-12  3072   0.267E-05
  41 F= -.13921312E+04 E0= -.13921312E+04  d E =-.980881E-03  mag=    -0.0000
       N       E                     dE             d eps       ncg     rms          rms(c)
DAV:   1    -0.137301009829E+04    0.73445E-03   -0.74079E-02  5088   0.148E-01    0.951E-02
DAV:   2    -0.137301004698E+04    0.51306E-04   -0.62004E-04  5312   0.152E-02    0.553E-02
DAV:   3    -0.137301004222E+04    0.47663E-05   -0.30085E-04  5632   0.931E-03    0.164E-02
DAV:   4    -0.137301003684E+04    0.53765E-05   -0.30309E-05  5440   0.298E-03    0.109E-02
DAV:   5    -0.137301003642E+04    0.41988E-06   -0.14973E-05  5248   0.191E-03    0.185E-03
DAV:   6    -0.137301003655E+04   -0.12797E-06   -0.84737E-07  4800   0.684E-04    0.105E-03
DAV:   7    -0.137301003671E+04   -0.15607E-06   -0.14356E-07  4544   0.254E-04    0.645E-04
DAV:   8    -0.137301003687E+04   -0.16537E-06   -0.25346E-08  3616   0.173E-04    0.306E-04
DAV:   9    -0.137301003703E+04   -0.15550E-06   -0.28419E-08  4064   0.165E-04    0.171E-04
DAV:  10    -0.137301003715E+04   -0.12020E-06   -0.79790E-09  3648   0.124E-04    0.127E-04
DAV:  11    -0.137301003725E+04   -0.10028E-06   -0.60781E-09  3424   0.108E-04    0.785E-05
DAV:  12    -0.137301003730E+04   -0.49986E-07   -0.41648E-09  3344   0.907E-05    0.481E-05
DAV:  13    -0.137301003735E+04   -0.49069E-07   -0.50690E-09  3216   0.992E-05    0.499E-05
DAV:  14    -0.137301003736E+04   -0.13184E-07   -0.26729E-09  3136   0.780E-05    0.452E-05
DAV:  15    -0.137301003738E+04   -0.15381E-07   -0.16000E-09  3072   0.617E-05    0.311E-05
DAV:  16    -0.137301003738E+04   -0.52969E-08   -0.49069E-10  3136   0.379E-05
  42 F= -.13921303E+04 E0= -.13921303E+04  d E =0.890484E-03  mag=    -0.0000
       N       E                     dE             d eps       ncg     rms          rms(c)
DAV:   1    -0.137301083899E+04   -0.80161E-03   -0.84491E-02  5120   0.156E-01    0.144E-01
DAV:   2    -0.137301059006E+04    0.24892E-03   -0.15764E-03  5312   0.239E-02    0.790E-02
DAV:   3    -0.137301054197E+04    0.48095E-04   -0.84959E-04  5680   0.143E-02    0.283E-02
DAV:   4    -0.137301052719E+04    0.14780E-04   -0.76889E-05  5184   0.457E-03    0.188E-02
DAV:   5    -0.137301052611E+04    0.10771E-05   -0.26847E-05  5632   0.257E-03    0.343E-03
DAV:   6    -0.137301052594E+04    0.16601E-06   -0.25592E-06  4704   0.950E-04    0.127E-03
DAV:   7    -0.137301052604E+04   -0.96625E-07   -0.45873E-07  5216   0.379E-04    0.110E-03
DAV:   8    -0.137301052614E+04   -0.98327E-07   -0.43454E-08  3840   0.169E-04    0.397E-04
DAV:   9    -0.137301052625E+04   -0.11455E-06   -0.41564E-08  3904   0.145E-04    0.230E-04
DAV:  10    -0.137301052635E+04   -0.91663E-07   -0.47687E-09  3424   0.843E-05    0.126E-04
DAV:  11    -0.137301052646E+04   -0.11809E-06   -0.86880E-09  3552   0.879E-05    0.793E-05
DAV:  12    -0.137301052652E+04   -0.58484E-07   -0.21421E-09  3200   0.721E-05    0.675E-05
DAV:  13    -0.137301052660E+04   -0.79366E-07   -0.51417E-09  3456   0.813E-05    0.424E-05
DAV:  14    -0.137301052662E+04   -0.22425E-07   -0.12070E-09  3136   0.535E-05    0.441E-05
DAV:  15    -0.137301052665E+04   -0.21188E-07   -0.39014E-10  3072   0.387E-05    0.161E-05
DAV:  16    -0.137301052667E+04   -0.26004E-07   -0.79775E-10  3072   0.435E-05    0.259E-05
DAV:  17    -0.137301052668E+04   -0.46566E-08    0.85719E-11  3136   0.268E-05
  43 F= -.13921307E+04 E0= -.13921307E+04  d E =-.352767E-03  mag=    -0.0000
       N       E                     dE             d eps       ncg     rms          rms(c)
DAV:   1    -0.137300991440E+04    0.61227E-03   -0.81724E-02  4992   0.157E-01    0.130E-01
DAV:   2    -0.137300970740E+04    0.20700E-03   -0.15585E-03  5376   0.238E-02    0.721E-02
DAV:   3    -0.137300966664E+04    0.40767E-04   -0.10134E-03  5408   0.154E-02    0.305E-02
DAV:   4    -0.137300965320E+04    0.13434E-04   -0.78668E-05  4992   0.467E-03    0.217E-02
DAV:   5    -0.137300965150E+04    0.17076E-05   -0.24733E-05  5312   0.253E-03    0.502E-03
DAV:   6    -0.137300965133E+04    0.16214E-06   -0.59069E-06  5120   0.126E-03    0.128E-03
DAV:   7    -0.137300965172E+04   -0.38614E-06   -0.65719E-07  4448   0.486E-04    0.144E-03
DAV:   8    -0.137300965205E+04   -0.33081E-06   -0.65654E-08  4064   0.203E-04    0.646E-04
DAV:   9    -0.137300965226E+04   -0.20809E-06   -0.57166E-08  3920   0.149E-04    0.157E-04
DAV:  10    -0.137300965246E+04   -0.20122E-06   -0.12810E-08  3680   0.850E-05    0.171E-04
DAV:  11    -0.137300965265E+04   -0.19131E-06   -0.72814E-09  3584   0.704E-05    0.109E-04
DAV:  12    -0.137300965278E+04   -0.13143E-06   -0.74952E-09  3600   0.709E-05    0.650E-05
DAV:  13    -0.137300965287E+04   -0.89713E-07   -0.39367E-09  3296   0.710E-05    0.496E-05
DAV:  14    -0.137300965292E+04   -0.47090E-07   -0.24606E-09  3200   0.670E-05    0.203E-05
DAV:  15    -0.137300965295E+04   -0.33921E-07   -0.11007E-09  3072   0.486E-05    0.217E-05
DAV:  16    -0.137300965297E+04   -0.21391E-07   -0.40436E-10  3072   0.357E-05    0.897E-06
DAV:  17    -0.137300965298E+04   -0.89203E-08    0.15581E-10  3072   0.231E-05
  44 F= -.13921300E+04 E0= -.13921300E+04  d E =0.659958E-03  mag=     0.0000
       N       E                     dE             d eps       ncg     rms          rms(c)
DAV:   1    -0.137301091786E+04   -0.12649E-02   -0.82118E-02  5024   0.134E-01    0.129E-01
DAV:   2    -0.137301075617E+04    0.16169E-03   -0.13239E-03  5152   0.193E-02    0.740E-02
DAV:   3    -0.137301071690E+04    0.39270E-04   -0.75911E-04  5120   0.133E-02    0.267E-02
DAV:   4    -0.137301070333E+04    0.13573E-04   -0.66017E-05  4896   0.421E-03    0.182E-02
DAV:   5    -0.137301070183E+04    0.15016E-05   -0.25536E-05  5280   0.241E-03    0.379E-03
DAV:   6    -0.137301070178E+04    0.44354E-07   -0.28391E-06  4944   0.948E-04    0.116E-03
DAV:   7    -0.137301070212E+04   -0.33801E-06   -0.47190E-07  4880   0.380E-04    0.107E-03
DAV:   8    -0.137301070252E+04   -0.40015E-06   -0.69130E-08  3856   0.187E-04    0.372E-04
DAV:   9    -0.137301070286E+04   -0.34082E-06   -0.42872E-08  3872   0.139E-04    0.233E-04
DAV:  10    -0.137301070318E+04   -0.32371E-06   -0.91275E-09  3584   0.882E-05    0.146E-04
DAV:  11    -0.137301070348E+04   -0.29185E-06   -0.12221E-08  3648   0.826E-05    0.741E-05
DAV:  12    -0.137301070361E+04   -0.13068E-06   -0.27652E-09  3264   0.531E-05    0.557E-05
DAV:  13    -0.137301070381E+04   -0.20159E-06   -0.83488E-09  3616   0.593E-05    0.380E-05
DAV:  14    -0.137301070386E+04   -0.47497E-07   -0.87595E-10  3136   0.403E-05    0.270E-05
DAV:  15    -0.137301070391E+04   -0.58368E-07   -0.17997E-09  3136   0.466E-05    0.170E-05
DAV:  16    -0.137301070393E+04   -0.11278E-07   -0.53285E-10  3136   0.393E-05    0.164E-05
DAV:  17    -0.137301070393E+04   -0.43947E-08    0.29987E-10  2944   0.200E-05
  45 F= -.13921310E+04 E0= -.13921310E+04  d E =-.965052E-03  mag=     0.0000
       N       E                     dE             d eps       ncg     rms          rms(c)
DAV:   1    -0.137301098889E+04   -0.28496E-03   -0.73344E-02  4992   0.128E-01    0.874E-02
DAV:   2    -0.137301097272E+04    0.16167E-04   -0.51576E-04  5088   0.112E-02    0.516E-02
DAV:   3    -0.137301096997E+04    0.27519E-05   -0.17300E-04  5344   0.675E-03    0.124E-02
DAV:   4    -0.137301096736E+04    0.26089E-05   -0.17529E-05  5024   0.224E-03    0.802E-03
DAV:   5    -0.137301096743E+04   -0.71290E-07   -0.10258E-05  4736   0.152E-03    0.160E-03
[...]
DAV:   8    -0.137300884506E+04   -0.10699E-05   -0.82343E-08  4448   0.203E-04    0.335E-04
DAV:   9    -0.137300884607E+04   -0.10060E-05   -0.36176E-08  4064   0.131E-04    0.221E-04
DAV:  10    -0.137300884729E+04   -0.12262E-05   -0.72122E-08  4256   0.177E-04    0.139E-04
DAV:  11    -0.137300884790E+04   -0.60478E-06   -0.28477E-08  3984   0.122E-04    0.105E-04
DAV:  12    -0.137300884829E+04   -0.38980E-06   -0.13697E-08  3808   0.895E-05    0.684E-05
DAV:  13    -0.137300884848E+04   -0.19262E-06   -0.38405E-09  3376   0.650E-05    0.443E-05
DAV:  14    -0.137300884867E+04   -0.18743E-06   -0.52100E-09  3440   0.640E-05    0.315E-05
DAV:  15    -0.137300884874E+04   -0.76019E-07   -0.13979E-09  3072   0.509E-05    0.260E-05
DAV:  16    -0.137300884881E+04   -0.65716E-07   -0.13887E-09  3072   0.488E-05    0.172E-05
DAV:  17    -0.137300884884E+04   -0.27212E-07   -0.68903E-10  3072   0.490E-05    0.166E-05
DAV:  18    -0.137300884885E+04   -0.12325E-07    0.82823E-11  3072   0.302E-05    0.960E-06
DAV:  19    -0.137300884886E+04   -0.92259E-08    0.50714E-10  3072   0.202E-05
  54 F= -.13921293E+04 E0= -.13921293E+04  d E =-.314866E-03  mag=     0.0000
       N       E                     dE             d eps       ncg     rms          rms(c)
DAV:   1    -0.137300862181E+04    0.22704E-03   -0.47888E-01  4672   0.477E-01    0.140E-01
DAV:   2    -0.137300875688E+04   -0.13507E-03   -0.43653E-03  5280   0.447E-02    0.836E-02
DAV:   3    -0.137300866085E+04    0.96024E-04   -0.50897E-04  5568   0.145E-02    0.293E-02
DAV:   4    -0.137300866391E+04   -0.30612E-05   -0.77418E-05  5648   0.491E-03    0.118E-02
DAV:   5    -0.137300866265E+04    0.12674E-05   -0.14244E-05  5216   0.234E-03    0.396E-03
DAV:   6    -0.137300866314E+04   -0.48976E-06   -0.19657E-06  5152   0.897E-04    0.158E-03
DAV:   7    -0.137300866376E+04   -0.62308E-06   -0.22486E-07  4512   0.344E-04    0.564E-04
DAV:   8    -0.137300866437E+04   -0.61463E-06   -0.50375E-08  4224   0.181E-04    0.259E-04
DAV:   9    -0.137300866488E+04   -0.50374E-06   -0.13412E-08  3904   0.117E-04    0.184E-04
DAV:  10    -0.137300866559E+04   -0.70987E-06   -0.25210E-08  4128   0.130E-04    0.131E-04
DAV:  11    -0.137300866611E+04   -0.52390E-06   -0.18245E-08  3808   0.110E-04    0.825E-05
DAV:  12    -0.137300866651E+04   -0.39957E-06   -0.13597E-08  3712   0.896E-05    0.617E-05
DAV:  13    -0.137300866670E+04   -0.18437E-06   -0.45021E-09  3328   0.684E-05    0.416E-05
DAV:  14    -0.137300866680E+04   -0.10591E-06   -0.21727E-09  3072   0.534E-05    0.274E-05
DAV:  15    -0.137300866687E+04   -0.64319E-07   -0.17168E-09  3072   0.544E-05    0.179E-05
DAV:  16    -0.137300866689E+04   -0.24083E-07   -0.80774E-10  3072   0.509E-05    0.120E-05
DAV:  17    -0.137300866691E+04   -0.15309E-07   -0.21278E-10  3072   0.387E-05    0.967E-06
DAV:  18    -0.137300866691E+04   -0.71159E-08    0.29606E-10  3072   0.217E-05
  55 F= -.13921287E+04 E0= -.13921287E+04  d E =0.550389E-03  mag=     0.0000
       N       E                     dE             d eps       ncg     rms          rms(c)
DAV:   1    -0.137300821903E+04    0.44788E-03   -0.48967E-01  5056   0.489E-01    0.139E-01
DAV:   2    -0.137300838881E+04   -0.16978E-03   -0.46089E-03  5536   0.437E-02    0.916E-02
DAV:   3    -0.137300828881E+04    0.99995E-04   -0.51331E-04  5888   0.153E-02    0.294E-02
DAV:   4    -0.137300829247E+04   -0.36638E-05   -0.11144E-04  6080   0.520E-03    0.101E-02
DAV:   5    -0.137300829283E+04   -0.35408E-06   -0.90692E-06  5760   0.183E-03    0.442E-03
DAV:   6    -0.137300829415E+04   -0.13193E-05   -0.10340E-06  5280   0.788E-04    0.190E-03
DAV:   7    -0.137300829608E+04   -0.19285E-05   -0.49513E-07  4960   0.561E-04    0.674E-04
DAV:   8    -0.137300829755E+04   -0.14763E-05   -0.12864E-07  4480   0.258E-04    0.424E-04
DAV:   9    -0.137300829902E+04   -0.14724E-05   -0.47446E-08  4416   0.173E-04    0.276E-04
DAV:  10    -0.137300830093E+04   -0.19024E-05   -0.89069E-08  4544   0.221E-04    0.169E-04
DAV:  11    -0.137300830202E+04   -0.10896E-05   -0.49197E-08  4384   0.160E-04    0.120E-04
DAV:  12    -0.137300830274E+04   -0.72192E-06   -0.21503E-08  4000   0.105E-04    0.847E-05
DAV:  13    -0.137300830314E+04   -0.40518E-06   -0.81049E-09  3680   0.724E-05    0.528E-05
DAV:  14    -0.137300830345E+04   -0.31073E-06   -0.74590E-09  3616   0.753E-05    0.335E-05
DAV:  15    -0.137300830356E+04   -0.10642E-06   -0.23619E-09  3072   0.647E-05    0.259E-05
DAV:  16    -0.137300830364E+04   -0.82742E-07   -0.18263E-09  3072   0.492E-05    0.144E-05
DAV:  17    -0.137300830369E+04   -0.46814E-07   -0.11176E-09  3072   0.442E-05    0.114E-05
DAV:  18    -0.137300830370E+04   -0.80327E-08   -0.58698E-11  3136   0.322E-05
  56 F= -.13921285E+04 E0= -.13921285E+04  d E =0.192578E-03  mag=    -0.0000
       N       E                     dE             d eps       ncg     rms          rms(c)
DAV:   1    -0.137300793164E+04    0.37205E-03   -0.51204E-01  5120   0.448E-01    0.183E-01
DAV:   2    -0.137300779731E+04    0.13433E-03   -0.46380E-03  5440   0.480E-02    0.104E-01
DAV:   3    -0.137300766496E+04    0.13234E-03   -0.11953E-03  5504   0.222E-02    0.341E-02
DAV:   4    -0.137300765303E+04    0.11933E-04   -0.13330E-04  5696   0.719E-03    0.191E-02
DAV:   5    -0.137300765320E+04   -0.17240E-06   -0.25354E-05  6560   0.326E-03    0.509E-03
DAV:   6    -0.137300765320E+04    0.88330E-08   -0.39489E-06  5072   0.137E-03    0.230E-03
DAV:   7    -0.137300765387E+04   -0.67697E-06   -0.67799E-07  5728   0.587E-04    0.932E-04
DAV:   8    -0.137300765466E+04   -0.78433E-06   -0.12478E-07  4448   0.308E-04    0.466E-04
DAV:   9    -0.137300765538E+04   -0.72183E-06   -0.37602E-08  4032   0.188E-04    0.275E-04
DAV:  10    -0.137300765623E+04   -0.85408E-06   -0.35633E-08  4288   0.177E-04    0.169E-04
DAV:  11    -0.137300765698E+04   -0.75116E-06   -0.32049E-08  3904   0.168E-04    0.112E-04
DAV:  12    -0.137300765754E+04   -0.55958E-06   -0.23246E-08  3904   0.131E-04    0.761E-05
DAV:  13    -0.137300765788E+04   -0.33587E-06   -0.10291E-08  3584   0.891E-05    0.465E-05
DAV:  14    -0.137300765806E+04   -0.18507E-06   -0.47633E-09  3424   0.648E-05    0.337E-05
DAV:  15    -0.137300765817E+04   -0.10191E-06   -0.20439E-09  3136   0.563E-05    0.230E-05
DAV:  16    -0.137300765824E+04   -0.72454E-07   -0.17936E-09  3104   0.483E-05    0.161E-05
DAV:  17    -0.137300765827E+04   -0.35216E-07   -0.49811E-10  3136   0.365E-05    0.111E-05
DAV:  18    -0.137300765830E+04   -0.26179E-07   -0.15904E-10  3072   0.348E-05    0.111E-05
DAV:  19    -0.137300765831E+04   -0.63155E-08    0.42661E-10  3104   0.244E-05
  57 F= -.13921280E+04 E0= -.13921280E+04  d E =0.536909E-03  mag=     0.0000
       N       E                     dE             d eps       ncg     rms          rms(c)
DAV:   1    -0.137301035735E+04   -0.26990E-02   -0.47183E-01  5120   0.472E-01    0.165E-01
DAV:   2    -0.137301031374E+04    0.43605E-04   -0.39392E-03  5728   0.418E-02    0.929E-02
DAV:   3    -0.137301021534E+04    0.98402E-04   -0.82056E-04  5792   0.181E-02    0.285E-02
DAV:   4    -0.137301021153E+04    0.38083E-05   -0.84963E-05  5728   0.563E-03    0.168E-02
DAV:   5    -0.137301021062E+04    0.91091E-06   -0.20585E-05  6064   0.301E-03    0.620E-03
DAV:   6    -0.137301021075E+04   -0.12848E-06   -0.34713E-06  5264   0.135E-03    0.206E-03
DAV:   7    -0.137301021099E+04   -0.23976E-06   -0.54304E-07  5696   0.588E-04    0.888E-04
DAV:   8    -0.137301021140E+04   -0.40927E-06   -0.82835E-08  4352   0.266E-04    0.442E-04
DAV:   9    -0.137301021188E+04   -0.48618E-06   -0.27773E-08  4176   0.180E-04    0.246E-04
DAV:  10    -0.137301021245E+04   -0.56496E-06   -0.24546E-08  4032   0.153E-04    0.164E-04
DAV:  11    -0.137301021297E+04   -0.51802E-06   -0.22039E-08  4000   0.128E-04    0.108E-04
DAV:  12    -0.137301021339E+04   -0.42802E-06   -0.17987E-08  3840   0.109E-04    0.691E-05
DAV:  13    -0.137301021361E+04   -0.21818E-06   -0.52701E-09  3424   0.640E-05    0.546E-05
DAV:  14    -0.137301021375E+04   -0.13782E-06   -0.23676E-09  3136   0.471E-05    0.328E-05
DAV:  15    -0.137301021388E+04   -0.13028E-06   -0.30973E-09  3264   0.479E-05    0.234E-05
DAV:  16    -0.137301021392E+04   -0.38170E-07   -0.61013E-10  3136   0.349E-05    0.171E-05
DAV:  17    -0.137301021397E+04   -0.53464E-07   -0.82228E-10  3072   0.349E-05    0.124E-05
DAV:  18    -0.137301021398E+04   -0.12718E-07    0.12517E-10  3072   0.278E-05    0.115E-05
DAV:  19    -0.137301021399E+04   -0.53114E-08    0.51877E-10  3072   0.190E-05
  58 F= -.13921307E+04 E0= -.13921307E+04  d E =-.274932E-02  mag=    -0.0000
       N       E                     dE             d eps       ncg     rms          rms(c)
DAV:   1    -0.137300833306E+04    0.18809E-02   -0.46533E-01  5120   0.481E-01    0.130E-01
DAV:   2    -0.137300854736E+04   -0.21430E-03   -0.45981E-03  6016   0.423E-02    0.820E-02
DAV:   3    -0.137300848584E+04    0.61523E-04   -0.35445E-04  6144   0.154E-02    0.259E-02
DAV:   4    -0.137300849136E+04   -0.55250E-05   -0.62565E-05  5888   0.538E-03    0.906E-03
DAV:   5    -0.137300849175E+04   -0.39174E-06   -0.85367E-06  6400   0.281E-03    0.367E-03
DAV:   6    -0.137300849222E+04   -0.46755E-06   -0.11585E-06  6240   0.121E-03    0.170E-03
DAV:   7    -0.137300849289E+04   -0.66901E-06   -0.19762E-07  5184   0.524E-04    0.750E-04
DAV:   8    -0.137300849374E+04   -0.85469E-06   -0.10479E-07  4736   0.412E-04    0.390E-04
DAV:   9    -0.137300849449E+04   -0.74388E-06   -0.47052E-08  4544   0.258E-04    0.267E-04
DAV:  10    -0.137300849548E+04   -0.99678E-06   -0.50966E-08  4576   0.294E-04    0.157E-04
DAV:  11    -0.137300849606E+04   -0.57285E-06   -0.41890E-08  4384   0.227E-04    0.116E-04
DAV:  12    -0.137300849639E+04   -0.33689E-06   -0.15076E-08  4032   0.133E-04    0.824E-05
DAV:  13    -0.137300849661E+04   -0.21161E-06   -0.49143E-09  3392   0.801E-05    0.536E-05
DAV:  14    -0.137300849677E+04   -0.15962E-06   -0.47257E-09  3520   0.704E-05    0.338E-05
DAV:  15    -0.137300849684E+04   -0.71799E-07   -0.19207E-09  3136   0.527E-05    0.235E-05
DAV:  16    -0.137300849690E+04   -0.59066E-07   -0.18587E-09  3104   0.488E-05    0.139E-05
DAV:  17    -0.137300849691E+04   -0.17797E-07   -0.71978E-10  3136   0.420E-05    0.124E-05
DAV:  18    -0.137300849692E+04   -0.79599E-08   -0.11084E-11  3072   0.307E-05
  59 F= -.13921286E+04 E0= -.13921286E+04  d E =0.212350E-02  mag=     0.0000
       N       E                     dE             d eps       ncg     rms          rms(c)
DAV:   1    -0.137300800720E+04    0.48972E-03   -0.50843E-01  5120   0.444E-01    0.181E-01
DAV:   2    -0.137300781651E+04    0.19068E-03   -0.45062E-03  5376   0.467E-02    0.100E-01
DAV:   3    -0.137300768915E+04    0.12737E-03   -0.10235E-03  5504   0.201E-02    0.357E-02
DAV:   4    -0.137300767776E+04    0.11386E-04   -0.12194E-04  5984   0.672E-03    0.183E-02
DAV:   5    -0.137300767840E+04   -0.64063E-06   -0.16872E-05  5920   0.277E-03    0.528E-03
DAV:   6    -0.137300767829E+04    0.11284E-06   -0.38687E-06  4800   0.127E-03    0.246E-03
DAV:   7    -0.137300767879E+04   -0.49836E-06   -0.58822E-07  5376   0.525E-04    0.925E-04
DAV:   8    -0.137300767940E+04   -0.61460E-06   -0.13881E-07  4544   0.283E-04    0.416E-04
DAV:   9    -0.137300767983E+04   -0.42787E-06   -0.25436E-08  3872   0.139E-04    0.245E-04
DAV:  10    -0.137300768034E+04   -0.50719E-06   -0.22262E-08  4192   0.115E-04    0.171E-04
DAV:  11    -0.137300768075E+04   -0.41263E-06   -0.13871E-08  3616   0.105E-04    0.951E-05
DAV:  12    -0.137300768107E+04   -0.31908E-06   -0.14494E-08  3904   0.905E-05    0.832E-05
DAV:  13    -0.137300768122E+04   -0.15333E-06   -0.34852E-09  3296   0.650E-05    0.547E-05
DAV:  14    -0.137300768135E+04   -0.13231E-06   -0.44889E-09  3424   0.570E-05    0.428E-05
DAV:  15    -0.137300768140E+04   -0.44791E-07   -0.66067E-10  3136   0.420E-05    0.293E-05
DAV:  16    -0.137300768146E+04   -0.63956E-07   -0.21395E-09  3072   0.524E-05    0.352E-05
DAV:  17    -0.137300768147E+04   -0.11118E-07   -0.38044E-10  3136   0.447E-05    0.257E-05
DAV:  18    -0.137300768148E+04   -0.11365E-07   -0.83082E-11  3072   0.339E-05    0.190E-05
DAV:  19    -0.137300768149E+04   -0.79308E-08    0.41992E-10  3072   0.255E-05
  60 F= -.13921277E+04 E0= -.13921277E+04  d E =0.896946E-03  mag=     0.0000
       N       E                     dE             d eps       ncg     rms          rms(c)
DAV:   1    -0.137301043897E+04   -0.27575E-02   -0.48374E-01  5120   0.487E-01    0.162E-01
DAV:   2    -0.137301019711E+04    0.24186E-03   -0.37628E-03  5664   0.454E-02    0.824E-02
DAV:   3    -0.137301012467E+04    0.72439E-04   -0.81467E-04  6144   0.216E-02    0.318E-02
DAV:   4    -0.137301012040E+04    0.42734E-05   -0.94222E-05  6176   0.684E-03    0.171E-02
DAV:   5    -0.137301012248E+04   -0.20857E-05   -0.15112E-05  5568   0.308E-03    0.538E-03
DAV:   6    -0.137301012217E+04    0.30850E-06   -0.40447E-06  5888   0.178E-03    0.215E-03
DAV:   7    -0.137301012237E+04   -0.19275E-06   -0.55124E-07  5712   0.699E-04    0.105E-03
DAV:   8    -0.137301012265E+04   -0.28855E-06   -0.17779E-07  5376   0.529E-04    0.454E-04
DAV:   9    -0.137301012292E+04   -0.26540E-06   -0.68302E-08  4896   0.326E-04    0.324E-04
DAV:  10    -0.137301012325E+04   -0.32484E-06   -0.21631E-08  4000   0.278E-04    0.206E-04
DAV:  11    -0.137301012367E+04   -0.42039E-06   -0.50146E-08  4960   0.369E-04    0.163E-04
DAV:  12    -0.137301012393E+04   -0.26364E-06   -0.38911E-08  4448   0.242E-04    0.113E-04
DAV:  13    -0.137301012409E+04   -0.16364E-06   -0.99028E-09  4064   0.127E-04    0.961E-05
DAV:  14    -0.137301012421E+04   -0.11791E-06   -0.27970E-09  3296   0.714E-05    0.483E-05
DAV:  15    -0.137301012434E+04   -0.12669E-06   -0.39212E-09  3392   0.620E-05    0.304E-05
DAV:  16    -0.137301012439E+04   -0.47687E-07   -0.73944E-10  3136   0.443E-05    0.224E-05
DAV:  17    -0.137301012443E+04   -0.49287E-07   -0.10801E-09  3072   0.398E-05    0.116E-05
DAV:  18    -0.137301012446E+04   -0.21304E-07   -0.17403E-10  3136   0.335E-05    0.940E-06
DAV:  19    -0.137301012447E+04   -0.99826E-08    0.23233E-10  3072   0.249E-05
  61 F= -.13921306E+04 E0= -.13921306E+04  d E =-.288685E-02  mag=     0.0000
       N       E                     dE             d eps       ncg     rms          rms(c)
DAV:   1    -0.137300838635E+04    0.17381E-02   -0.49293E-01  5120   0.478E-01    0.141E-01
DAV:   2    -0.137300842914E+04   -0.42793E-04   -0.40682E-03  5792   0.398E-02    0.880E-02
DAV:   3    -0.137300831318E+04    0.11597E-03   -0.55986E-04  6336   0.172E-02    0.226E-02
DAV:   4    -0.137300832314E+04   -0.99631E-05   -0.97981E-05  6176   0.572E-03    0.957E-03
DAV:   5    -0.137300832305E+04    0.86569E-07   -0.93692E-06  6240   0.243E-03    0.481E-03
DAV:   6    -0.137300832354E+04   -0.49071E-06   -0.17421E-06  6336   0.126E-03    0.178E-03
DAV:   7    -0.137300832415E+04   -0.60840E-06   -0.25298E-07  5408   0.612E-04    0.759E-04
DAV:   8    -0.137300832501E+04   -0.86048E-06   -0.10308E-07  4992   0.391E-04    0.432E-04
DAV:   9    -0.137300832585E+04   -0.83909E-06   -0.46357E-08  4320   0.267E-04    0.273E-04
DAV:  10    -0.137300832679E+04   -0.93420E-06   -0.31056E-08  4192   0.228E-04    0.167E-04
DAV:  11    -0.137300832772E+04   -0.93080E-06   -0.54482E-08  4416   0.273E-04    0.112E-04
DAV:  12    -0.137300832811E+04   -0.39530E-06   -0.21651E-08  3968   0.158E-04    0.904E-05
DAV:  13    -0.137300832833E+04   -0.21723E-06   -0.42861E-09  3360   0.850E-05    0.594E-05
DAV:  14    -0.137300832858E+04   -0.25051E-06   -0.73998E-09  3616   0.828E-05    0.355E-05
DAV:  15    -0.137300832866E+04   -0.84314E-07   -0.23816E-09  3136   0.754E-05    0.250E-05
DAV:  16    -0.137300832875E+04   -0.85885E-07   -0.22516E-09  3104   0.589E-05    0.159E-05
DAV:  17    -0.137300832878E+04   -0.34473E-07   -0.81748E-10  3072   0.460E-05    0.131E-05
DAV:  18    -0.137300832880E+04   -0.17259E-07   -0.42997E-10  3072   0.391E-05    0.814E-06
DAV:  19    -0.137300832881E+04   -0.67521E-08    0.14217E-10  3072   0.270E-05
  62 F= -.13921287E+04 E0= -.13921287E+04  d E =0.195014E-02  mag=     0.0000
       N       E                     dE             d eps       ncg     rms          rms(c)
DAV:   1    -0.137300896855E+04   -0.63975E-03   -0.50409E-01  5024   0.385E-01    0.146E-01
DAV:   2    -0.137300882008E+04    0.14847E-03   -0.27171E-03  5312   0.325E-02    0.915E-02
DAV:   3    -0.137300868861E+04    0.13146E-03   -0.82101E-04  5504   0.162E-02    0.131E-02
DAV:   4    -0.137300869210E+04   -0.34852E-05   -0.67469E-05  5440   0.431E-03    0.793E-03
DAV:   5    -0.137300869272E+04   -0.62570E-06   -0.66830E-06  5856   0.180E-03    0.301E-03
DAV:   6    -0.137300869337E+04   -0.65017E-06   -0.89328E-07  5024   0.837E-04    0.136E-03
DAV:   7    -0.137300869434E+04   -0.96548E-06   -0.34977E-07  5024   0.480E-04    0.547E-04
DAV:   8    -0.137300869519E+04   -0.84631E-06   -0.61033E-08  4112   0.212E-04    0.349E-04
DAV:   9    -0.137300869632E+04   -0.11374E-05   -0.48351E-08  4384   0.200E-04    0.215E-04
DAV:  10    -0.137300869738E+04   -0.10561E-05   -0.59181E-08  4352   0.226E-04    0.132E-04
DAV:  11    -0.137300869796E+04   -0.58489E-06   -0.28690E-08  3904   0.144E-04    0.995E-05
DAV:  12    -0.137300869829E+04   -0.32128E-06   -0.87365E-09  3680   0.861E-05    0.741E-05
DAV:  13    -0.137300869858E+04   -0.29756E-06   -0.93021E-09  3696   0.809E-05    0.390E-05
DAV:  14    -0.137300869872E+04   -0.13348E-06   -0.31606E-09  3136   0.630E-05    0.299E-05
DAV:  15    -0.137300869880E+04   -0.85070E-07   -0.22239E-09  3104   0.578E-05    0.209E-05
DAV:  16    -0.137300869887E+04   -0.68670E-07   -0.15861E-09  3072   0.517E-05    0.120E-05
DAV:  17    -0.137300869890E+04   -0.30195E-07   -0.58807E-10  3136   0.395E-05    0.898E-06
DAV:  18    -0.137300869892E+04   -0.16356E-07    0.41459E-12  3072   0.309E-05    0.598E-06
DAV:  19    -0.137300869892E+04   -0.74069E-08    0.49350E-10  3072   0.173E-05
  63 F= -.13921291E+04 E0= -.13921291E+04  d E =-.487142E-03  mag=    -0.0000
       N       E                     dE             d eps       ncg     rms          rms(c)
DAV:   1    -0.137300892935E+04   -0.23043E-03   -0.49836E-01  4992   0.391E-01    0.149E-01
DAV:   2    -0.137300877305E+04    0.15630E-03   -0.28632E-03  5248   0.326E-02    0.907E-02
DAV:   3    -0.137300864079E+04    0.13226E-03   -0.76002E-04  5472   0.155E-02    0.144E-02
DAV:   4    -0.137300864544E+04   -0.46525E-05   -0.59528E-05  5344   0.425E-03    0.835E-03
DAV:   5    -0.137300864585E+04   -0.40891E-06   -0.65749E-06  6080   0.202E-03    0.331E-03
DAV:   6    -0.137300864615E+04   -0.30143E-06   -0.11736E-06  5216   0.864E-04    0.128E-03
DAV:   7    -0.137300864648E+04   -0.33148E-06   -0.29301E-07  4800   0.359E-04    0.467E-04
DAV:   8    -0.137300864674E+04   -0.26326E-06   -0.29363E-08  3968   0.150E-04    0.268E-04
DAV:   9    -0.137300864703E+04   -0.29049E-06   -0.15175E-08  3728   0.123E-04    0.144E-04
DAV:  10    -0.137300864729E+04   -0.25224E-06   -0.11166E-08  3680   0.105E-04    0.927E-05
DAV:  11    -0.137300864748E+04   -0.19043E-06   -0.89847E-09  3568   0.948E-05    0.648E-05
DAV:  12    -0.137300864758E+04   -0.10054E-06   -0.37129E-09  3200   0.717E-05    0.462E-05
DAV:  13    -0.137300864767E+04   -0.90164E-07   -0.32072E-09  3232   0.573E-05    0.276E-05
DAV:  14    -0.137300864772E+04   -0.50379E-07   -0.21325E-09  3136   0.533E-05    0.179E-05
DAV:  15    -0.137300864774E+04   -0.22483E-07   -0.11802E-09  3072   0.479E-05    0.139E-05
DAV:  16    -0.137300864775E+04   -0.11089E-07   -0.44790E-10  3072   0.368E-05    0.100E-05
DAV:  17    -0.137300864776E+04   -0.50204E-08    0.16133E-10  3072   0.242E-05
  64 F= -.13921289E+04 E0= -.13921289E+04  d E =0.274214E-03  mag=     0.0000
