       N       E                     dE             d eps       ncg     rms          rms(c)
DAV:   1    -0.138459123247E+04   -0.13846E+04   -0.13395E+00  6208   0.982E-01    0.947E-01
DAV:   2    -0.138633033879E+04   -0.17391E+01   -0.11921E+00  6176   0.954E-01    0.410E-01
DAV:   3    -0.138634003721E+04   -0.96984E-02   -0.43369E-02  6656   0.230E-01    0.277E-01
DAV:   4    -0.138634009122E+04   -0.54002E-04   -0.22363E-03  5472   0.579E-02    0.224E-01
DAV:   5    -0.138634010204E+04   -0.10828E-04   -0.20922E-04  6656   0.183E-02    0.188E-01
DAV:   6    -0.138634011256E+04   -0.10513E-04   -0.23435E-05  6976   0.707E-03    0.163E-01
DAV:   7    -0.138634012016E+04   -0.76043E-05   -0.24211E-05  6592   0.823E-03    0.129E-01
DAV:   8    -0.138634012545E+04   -0.52917E-05   -0.17833E-05  7008   0.659E-03    0.106E-01
DAV:   9    -0.138634012969E+04   -0.42327E-05   -0.52856E-06  7104   0.346E-03    0.899E-02
DAV:  10    -0.138634013519E+04   -0.55046E-05   -0.17049E-05  6592   0.698E-03    0.572E-02
DAV:  11    -0.138634013898E+04   -0.37874E-05   -0.36885E-05  6400   0.987E-03    0.163E-02
DAV:  12    -0.138634014005E+04   -0.10770E-05   -0.51645E-06  7072   0.290E-03    0.102E-02
DAV:  13    -0.138634014025E+04   -0.19121E-06   -0.68356E-07  6400   0.130E-03    0.492E-03
DAV:  14    -0.138634014024E+04    0.58499E-08   -0.37336E-07  6944   0.843E-04    0.236E-03
DAV:  15    -0.138634014019E+04    0.46304E-07   -0.44591E-08  4256   0.358E-04    0.735E-04
DAV:  16    -0.138634014018E+04    0.15862E-07   -0.10801E-08  3008   0.187E-04    0.372E-04
DAV:  17    -0.138634014019E+04   -0.14639E-07   -0.71953E-09  2944   0.119E-04    0.362E-04
DAV:  18    -0.138634014019E+04    0.44238E-08   -0.29095E-09  2944   0.786E-05
   1 F= -.14058208E+04 E0= -.14058208E+04  d E =-.140582E+04  mag=     0.0000
       N       E                     dE             d eps       ncg     rms          rms(c)
DAV:   1    -0.138633921121E+04    0.92898E-03   -0.57996E-01  5120   0.881E-01    0.128E-01
DAV:   2    -0.138633950515E+04   -0.29393E-03   -0.48875E-03  5472   0.816E-02    0.894E-02
DAV:   3    -0.138633943997E+04    0.65173E-04   -0.62453E-04  6016   0.419E-02    0.313E-02
DAV:   4    -0.138633944582E+04   -0.58499E-05   -0.11451E-04  5952   0.150E-02    0.157E-02
DAV:   5    -0.138633944335E+04    0.24678E-05   -0.23493E-05  6272   0.689E-03    0.738E-03
DAV:   6    -0.138633944276E+04    0.59273E-06   -0.34971E-06  6496   0.290E-03    0.355E-03
DAV:   7    -0.138633944267E+04    0.93249E-07   -0.12588E-06  6432   0.182E-03    0.142E-03
DAV:   8    -0.138633944276E+04   -0.88563E-07   -0.28220E-07  6304   0.101E-03    0.838E-04
DAV:   9    -0.138633944289E+04   -0.13216E-06   -0.10208E-07  5440   0.592E-04    0.484E-04
DAV:  10    -0.138633944303E+04   -0.13836E-06   -0.51126E-08  4928   0.459E-04    0.310E-04
DAV:  11    -0.138633944316E+04   -0.13605E-06   -0.35053E-08  4512   0.310E-04    0.209E-04
DAV:  12    -0.138633944332E+04   -0.15619E-06   -0.11571E-08  3264   0.237E-04    0.135E-04
DAV:  13    -0.138633944342E+04   -0.10018E-06   -0.12241E-08  3488   0.146E-04    0.128E-04
DAV:  14    -0.138633944350E+04   -0.80734E-07   -0.47560E-09  3072   0.958E-05    0.690E-05
DAV:  15    -0.138633944359E+04   -0.87268E-07   -0.82207E-09  3168   0.995E-05    0.816E-05
DAV:  16    -0.138633944362E+04   -0.29788E-07   -0.16330E-09  3072   0.581E-05    0.637E-05
DAV:  17    -0.138633944365E+04   -0.32960E-07   -0.16295E-09  3008   0.531E-05    0.283E-05
DAV:  18    -0.138633944367E+04   -0.19019E-07   -0.10681E-10  2944   0.331E-05    0.222E-05
DAV:  19    -0.138633944369E+04   -0.20475E-07   -0.35323E-10  3008   0.305E-05    0.120E-05
DAV:  20    -0.138633944370E+04   -0.88912E-08    0.30940E-10  2944   0.207E-05
   2 F= -.14058201E+04 E0= -.14058201E+04  d E =0.657921E-03  mag=    -0.0000
       N       E                     dE             d eps       ncg     rms          rms(c)
DAV:   1    -0.138633899577E+04    0.44792E-03   -0.11594E+00  5120   0.124E+00    0.142E-01
DAV:   2    -0.138633975502E+04   -0.75925E-03   -0.10293E-02  5440   0.111E-01    0.925E-02
DAV:   3    -0.138633965967E+04    0.95351E-04   -0.89506E-04  6208   0.394E-02    0.455E-02
DAV:   4    -0.138633965058E+04    0.90886E-05   -0.19692E-04  5600   0.201E-02    0.164E-02
DAV:   5    -0.138633964834E+04    0.22370E-05   -0.46472E-05  5536   0.991E-03    0.940E-03
DAV:   6    -0.138633964853E+04   -0.18869E-06   -0.87918E-06  6272   0.331E-03    0.493E-03
DAV:   7    -0.138633964835E+04    0.18148E-06   -0.22126E-06  6464   0.223E-03    0.263E-03
DAV:   8    -0.138633964851E+04   -0.16626E-06   -0.59439E-07  6080   0.124E-03    0.133E-03
DAV:   9    -0.138633964865E+04   -0.13693E-06   -0.19332E-07  6112   0.686E-04    0.637E-04
DAV:  10    -0.138633964881E+04   -0.16324E-06   -0.52397E-08  4800   0.315E-04    0.314E-04
DAV:  11    -0.138633964899E+04   -0.17745E-06   -0.12639E-08  3328   0.227E-04    0.198E-04
DAV:  12    -0.138633964917E+04   -0.17310E-06   -0.23125E-08  4208   0.219E-04    0.133E-04
DAV:  13    -0.138633964927E+04   -0.10528E-06   -0.55552E-09  3136   0.123E-04    0.816E-05
DAV:  14    -0.138633964938E+04   -0.11193E-06   -0.54004E-09  3072   0.988E-05    0.566E-05
DAV:  15    -0.138633964943E+04   -0.50524E-07   -0.20029E-09  3072   0.583E-05    0.477E-05
DAV:  16    -0.138633964949E+04   -0.57698E-07   -0.29331E-09  3008   0.607E-05    0.384E-05
DAV:  17    -0.138633964950E+04   -0.12602E-07   -0.21480E-10  2944   0.389E-05    0.302E-05
DAV:  18    -0.138633964952E+04   -0.11962E-07   -0.29778E-10  3008   0.352E-05    0.213E-05
DAV:  19    -0.138633964952E+04   -0.75088E-08    0.41503E-10  2944   0.236E-05
   3 F= -.14058204E+04 E0= -.14058204E+04  d E =-.259192E-03  mag=    -0.0000
       N       E                     dE             d eps       ncg     rms          rms(c)
DAV:   1    -0.138633904190E+04    0.60761E-03   -0.11557E+00  5120   0.124E+00    0.137E-01
DAV:   2    -0.138633964695E+04   -0.60505E-03   -0.10225E-02  5536   0.117E-01    0.969E-02
DAV:   3    -0.138633952163E+04    0.12532E-03   -0.11330E-03  6304   0.490E-02    0.482E-02
DAV:   4    -0.138633951589E+04    0.57346E-05   -0.21018E-04  5664   0.221E-02    0.197E-02
DAV:   5    -0.138633951198E+04    0.39149E-05   -0.60532E-05  5472   0.131E-02    0.913E-03
DAV:   6    -0.138633951171E+04    0.26742E-06   -0.74198E-06  5536   0.396E-03    0.491E-03
DAV:   7    -0.138633951173E+04   -0.14930E-07   -0.43770E-06  5696   0.335E-03    0.305E-03
DAV:   8    -0.138633951176E+04   -0.29031E-07   -0.95181E-07  6528   0.159E-03    0.160E-03
DAV:   9    -0.138633951200E+04   -0.24155E-06   -0.42249E-07  5952   0.129E-03    0.728E-04
DAV:  10    -0.138633951231E+04   -0.31547E-06   -0.16280E-07  5952   0.820E-04    0.624E-04
DAV:  11    -0.138633951258E+04   -0.26289E-06   -0.80754E-08  5344   0.569E-04    0.294E-04
DAV:  12    -0.138633951292E+04   -0.34126E-06   -0.28677E-08  3840   0.508E-04    0.191E-04
DAV:  13    -0.138633951315E+04   -0.23413E-06   -0.39270E-08  4352   0.332E-04    0.161E-04
DAV:  14    -0.138633951332E+04   -0.16480E-06   -0.12876E-08  3936   0.155E-04    0.103E-04
DAV:  15    -0.138633951346E+04   -0.13983E-06   -0.43076E-09  3136   0.907E-05    0.581E-05
DAV:  16    -0.138633951355E+04   -0.94326E-07   -0.34041E-09  3072   0.595E-05    0.407E-05
DAV:  17    -0.138633951365E+04   -0.98968E-07   -0.38178E-09  3008   0.647E-05    0.280E-05
DAV:  18    -0.138633951369E+04   -0.36263E-07   -0.19124E-09  3072   0.553E-05    0.287E-05
DAV:  19    -0.138633951370E+04   -0.14727E-07   -0.66167E-10  2944   0.456E-05    0.275E-05
DAV:  20    -0.138633951371E+04   -0.11350E-07   -0.57436E-10  3008   0.436E-05    0.208E-05
DAV:  21    -0.138633951372E+04   -0.34925E-08    0.19979E-10  2944   0.294E-05
   4 F= -.14058205E+04 E0= -.14058205E+04  d E =-.179947E-03  mag=     0.0000
       N       E                     dE             d eps       ncg     rms          rms(c)
DAV:   1    -0.138633879845E+04    0.71526E-03   -0.11642E+00  5120   0.122E+00    0.170E-01
DAV:   2    -0.138633959558E+04   -0.79714E-03   -0.11372E-02  5440   0.118E-01    0.117E-01
DAV:   3    -0.138633943925E+04    0.15633E-03   -0.10875E-03  6496   0.473E-02    0.586E-02
DAV:   4    -0.138633942721E+04    0.12046E-04   -0.29741E-04  6080   0.251E-02    0.204E-02
DAV:   5    -0.138633942269E+04    0.45208E-05   -0.60776E-05  5984   0.113E-02    0.119E-02
DAV:   6    -0.138633942051E+04    0.21717E-05   -0.10241E-05  5664   0.444E-03    0.594E-03
DAV:   7    -0.138633941964E+04    0.87604E-06   -0.49460E-06  6848   0.369E-03    0.257E-03
DAV:   8    -0.138633941934E+04    0.29795E-06   -0.10831E-06  6176   0.211E-03    0.151E-03
DAV:   9    -0.138633941941E+04   -0.65396E-07   -0.62143E-07  6432   0.161E-03    0.984E-04
DAV:  10    -0.138633941988E+04   -0.47154E-06   -0.29460E-07  6608   0.157E-03    0.729E-04
DAV:  11    -0.138633942048E+04   -0.60337E-06   -0.36981E-07  5536   0.113E-03    0.381E-04
DAV:  12    -0.138633942097E+04   -0.49217E-06   -0.11856E-07  5264   0.430E-04    0.361E-04
DAV:  13    -0.138633942131E+04   -0.33966E-06   -0.19915E-08  3968   0.216E-04    0.195E-04
DAV:  14    -0.138633942177E+04   -0.46263E-06   -0.30637E-08  4256   0.179E-04    0.118E-04
DAV:  15    -0.138633942202E+04   -0.24513E-06   -0.83242E-09  3360   0.960E-05    0.648E-05
DAV:  16    -0.138633942224E+04   -0.21649E-06   -0.83745E-09  3296   0.741E-05    0.535E-05
DAV:  17    -0.138633942234E+04   -0.10869E-06   -0.32778E-09  3072   0.583E-05    0.416E-05
DAV:  18    -0.138633942242E+04   -0.79075E-07   -0.37923E-09  3072   0.617E-05    0.219E-05
DAV:  19    -0.138633942245E+04   -0.24840E-07   -0.17243E-09  3008   0.558E-05    0.305E-05
DAV:  20    -0.138633942246E+04   -0.76980E-08   -0.37046E-10  2944   0.357E-05
   5 F= -.14058199E+04 E0= -.14058199E+04  d E =0.639773E-03  mag=     0.0000
       N       E                     dE             d eps       ncg     rms          rms(c)
DAV:   1    -0.138633821274E+04    0.12097E-02   -0.11775E+00  5120   0.105E+00    0.110E-01
DAV:   2    -0.138633845050E+04   -0.23776E-03   -0.56597E-03  5408   0.761E-02    0.650E-02
DAV:   3    -0.138633836262E+04    0.87873E-04   -0.61521E-04  6016   0.260E-02    0.211E-02
DAV:   4    -0.138633836459E+04   -0.19694E-05   -0.87259E-05  6048   0.925E-03    0.132E-02
DAV:   5    -0.138633836365E+04    0.93924E-06   -0.67707E-06  5728   0.281E-03    0.667E-03
DAV:   6    -0.138633836322E+04    0.43830E-06   -0.15681E-06  6144   0.209E-03    0.199E-03
DAV:   7    -0.138633836331E+04   -0.95315E-07   -0.72734E-07  6880   0.106E-03    0.110E-03
DAV:   8    -0.138633836364E+04   -0.32723E-06   -0.10935E-07  5184   0.419E-04    0.678E-04
DAV:   9    -0.138633836405E+04   -0.40721E-06   -0.52714E-08  4480   0.372E-04    0.307E-04
DAV:  10    -0.138633836448E+04   -0.43333E-06   -0.62871E-08  4672   0.375E-04    0.212E-04
DAV:  11    -0.138633836482E+04   -0.33666E-06   -0.26702E-08  4320   0.190E-04    0.159E-04
DAV:  12    -0.138633836509E+04   -0.27187E-06   -0.99450E-09  3456   0.109E-04    0.827E-05
DAV:  13    -0.138633836533E+04   -0.24051E-06   -0.15273E-08  3904   0.107E-04    0.611E-05
DAV:  14    -0.138633836540E+04   -0.73764E-07   -0.21250E-09  3104   0.741E-05    0.424E-05
DAV:  15    -0.138633836549E+04   -0.87428E-07   -0.28421E-09  3136   0.669E-05    0.283E-05
DAV:  16    -0.138633836554E+04   -0.53740E-07   -0.18825E-09  3072   0.644E-05    0.300E-05
DAV:  17    -0.138633836557E+04   -0.25408E-07   -0.75662E-10  2944   0.556E-05    0.197E-05
DAV:  18    -0.138633836559E+04   -0.21057E-07   -0.81503E-10  3008   0.461E-05    0.173E-05
DAV:  19    -0.138633836559E+04   -0.47294E-08    0.31394E-10  2944   0.258E-05
   6 F= -.14058189E+04 E0= -.14058189E+04  d E =0.980270E-03  mag=     0.0000
       N       E                     dE             d eps       ncg     rms          rms(c)
DAV:   1    -0.138633853233E+04   -0.16674E-03   -0.11784E+00  5120   0.107E+00    0.137E-01
DAV:   2    -0.138633889827E+04   -0.36593E-03   -0.70797E-03  5536   0.869E-02    0.891E-02
DAV:   3    -0.138633879816E+04    0.10011E-03   -0.90669E-04  6432   0.405E-02    0.288E-02
DAV:   4    -0.138633880626E+04   -0.81040E-05   -0.14401E-04  5920   0.138E-02    0.186E-02
DAV:   5    -0.138633880259E+04    0.36712E-05   -0.21686E-05  6304   0.664E-03    0.810E-03
DAV:   6    -0.138633880172E+04    0.86997E-06   -0.45646E-06  6752   0.362E-03    0.302E-03
DAV:   7    -0.138633880216E+04   -0.43391E-06   -0.11123E-06  6112   0.182E-03    0.137E-03
DAV:   8    -0.138633880284E+04   -0.68950E-06   -0.33961E-07  6240   0.118E-03    0.964E-04
DAV:   9    -0.138633880389E+04   -0.10489E-05   -0.16619E-07  5584   0.110E-03    0.484E-04
DAV:  10    -0.138633880491E+04   -0.10194E-05   -0.19409E-07  5504   0.909E-04    0.346E-04
DAV:  11    -0.138633880587E+04   -0.95295E-06   -0.14984E-07  5280   0.590E-04    0.322E-04
DAV:  12    -0.138633880636E+04   -0.49056E-06   -0.31331E-08  4448   0.262E-04    0.199E-04
DAV:  13    -0.138633880677E+04   -0.41223E-06   -0.15922E-08  3648   0.144E-04    0.992E-05
DAV:  14    -0.138633880710E+04   -0.33039E-06   -0.14334E-08  3712   0.107E-04    0.737E-05
DAV:  15    -0.138633880728E+04   -0.18538E-06   -0.45780E-09  3136   0.642E-05    0.536E-05
DAV:  16    -0.138633880744E+04   -0.15061E-06   -0.56140E-09  3232   0.669E-05    0.285E-05
DAV:  17    -0.138633880750E+04   -0.59837E-07   -0.17319E-09  3072   0.493E-05    0.273E-05
DAV:  18    -0.138633880753E+04   -0.32524E-07   -0.76107E-10  3008   0.373E-05    0.158E-05
DAV:  19    -0.138633880755E+04   -0.18495E-07   -0.10685E-10  2944   0.321E-05    0.884E-06
DAV:  20    -0.138633880756E+04   -0.90949E-08    0.28744E-10  2944   0.233E-05
   7 F= -.14058197E+04 E0= -.14058197E+04  d E =-.738873E-03  mag=    -0.0000
       N       E                     dE             d eps       ncg     rms          rms(c)
DAV:   1    -0.138633911891E+04   -0.31136E-03   -0.11617E+00  5120   0.113E+00    0.182E-01
DAV:   2    -0.138633992863E+04   -0.80972E-03   -0.11876E-02  5504   0.106E-01    0.125E-01
DAV:   3    -0.138633975820E+04    0.17043E-03   -0.13305E-03  6496   0.508E-02    0.606E-02
DAV:   4    -0.138633974833E+04    0.98715E-05   -0.29149E-04  5984   0.234E-02    0.225E-02
DAV:   5    -0.138633974436E+04    0.39694E-05   -0.40587E-05  5728   0.969E-03    0.113E-02
DAV:   6    -0.138633974209E+04    0.22779E-05   -0.94774E-06  5984   0.463E-03    0.477E-03
DAV:   7    -0.138633974160E+04    0.48183E-06   -0.33810E-06  6720   0.307E-03    0.211E-03
DAV:   8    -0.138633974189E+04   -0.29082E-06   -0.68517E-07  6624   0.168E-03    0.141E-03
DAV:   9    -0.138633974240E+04   -0.50126E-06   -0.40887E-07  6304   0.138E-03    0.899E-04
DAV:  10    -0.138633974335E+04   -0.95804E-06   -0.22958E-07  6048   0.129E-03    0.581E-04
DAV:  11    -0.138633974452E+04   -0.11669E-05   -0.23880E-07  5472   0.108E-03    0.285E-04
DAV:  12    -0.138633974538E+04   -0.86107E-06   -0.15605E-07  5088   0.564E-04    0.298E-04
DAV:  13    -0.138633974578E+04   -0.40021E-06   -0.14659E-08  3760   0.159E-04    0.192E-04
DAV:  14    -0.138633974632E+04   -0.53790E-06   -0.21930E-08  4032   0.134E-04    0.107E-04
DAV:  15    -0.138633974665E+04   -0.33109E-06   -0.80377E-09  3328   0.856E-05    0.676E-05
DAV:  16    -0.138633974693E+04   -0.27612E-06   -0.90733E-09  3392   0.701E-05    0.455E-05
DAV:  17    -0.138633974704E+04   -0.11745E-06   -0.27368E-09  3072   0.548E-05    0.289E-05
DAV:  18    -0.138633974713E+04   -0.87355E-07   -0.32212E-09  3072   0.516E-05    0.199E-05
DAV:  19    -0.138633974716E+04   -0.23851E-07   -0.93225E-10  2944   0.512E-05    0.122E-05
DAV:  20    -0.138633974717E+04   -0.15280E-07   -0.64720E-10  3008   0.390E-05    0.124E-05
DAV:  21    -0.138633974717E+04   -0.21537E-08    0.25922E-10  2944   0.260E-05
   8 F= -.14058202E+04 E0= -.14058202E+04  d E =-.507226E-03  mag=    -0.0000
       N       E                     dE             d eps       ncg     rms          rms(c)
DAV:   1    -0.138633852405E+04    0.12231E-02   -0.11706E+00  5120   0.108E+00    0.278E-01
DAV:   2    -0.138633931671E+04   -0.79266E-03   -0.12443E-02  5760   0.110E-01    0.224E-01
DAV:   3    -0.138633911406E+04    0.20265E-03   -0.24426E-03  6112   0.789E-02    0.791E-02
DAV:   4    -0.138633912477E+04   -0.10716E-04   -0.58328E-04  6080   0.300E-02    0.386E-02
DAV:   5    -0.138633909339E+04    0.31381E-04   -0.16218E-04  6016   0.217E-02    0.154E-02
DAV:   6    -0.138633909191E+04    0.14779E-05   -0.35291E-05  5536   0.725E-03    0.588E-03
DAV:   7    -0.138633909222E+04   -0.30997E-06   -0.58092E-06  6880   0.362E-03    0.324E-03
DAV:   8    -0.138633909256E+04   -0.33139E-06   -0.10089E-06  6016   0.168E-03    0.187E-03
DAV:   9    -0.138633909368E+04   -0.11244E-05   -0.52254E-07  6848   0.142E-03    0.106E-03
DAV:  10    -0.138633909498E+04   -0.13031E-05   -0.32945E-07  5664   0.119E-03    0.732E-04
DAV:  11    -0.138633909676E+04   -0.17776E-05   -0.32071E-07  5888   0.109E-03    0.462E-04
DAV:  12    -0.138633909793E+04   -0.11701E-05   -0.16802E-07  5504   0.641E-04    0.370E-04
DAV:  13    -0.138633909859E+04   -0.66429E-06   -0.32865E-08  4480   0.236E-04    0.240E-04
DAV:  14    -0.138633909933E+04   -0.73516E-06   -0.29296E-08  4160   0.171E-04    0.129E-04
DAV:  15    -0.138633909967E+04   -0.33715E-06   -0.96412E-09  3504   0.101E-04    0.889E-05
DAV:  16    -0.138633910001E+04   -0.34044E-06   -0.11334E-08  3616   0.903E-05    0.665E-05
DAV:  17    -0.138633910020E+04   -0.19462E-06   -0.52137E-09  3232   0.680E-05    0.465E-05
DAV:  18    -0.138633910031E+04   -0.10344E-06   -0.39157E-09  3072   0.640E-05    0.378E-05
DAV:  19    -0.138633910036E+04   -0.50903E-07   -0.17521E-09  3008   0.571E-05    0.280E-05
DAV:  20    -0.138633910038E+04   -0.21711E-07   -0.75576E-10  2944   0.424E-05    0.192E-05
DAV:  21    -0.138633910039E+04   -0.10448E-07   -0.96209E-11  2944   0.325E-05    0.147E-05
DAV:  22    -0.138633910040E+04   -0.70431E-08    0.25602E-10  2944   0.216E-05
   9 F= -.14058199E+04 E0= -.14058199E+04  d E =0.225991E-03  mag=     0.0000
       N       E                     dE             d eps       ncg     rms          rms(c)
DAV:   1    -0.138633857986E+04    0.52053E-03   -0.11566E+00  5120   0.108E+00    0.201E-01
DAV:   2    -0.138633959750E+04   -0.10176E-02   -0.12579E-02  5760   0.936E-02    0.147E-01
DAV:   3    -0.138633943385E+04    0.16365E-03   -0.11095E-03  6336   0.423E-02    0.717E-02
DAV:   4    -0.138633942925E+04    0.46019E-05   -0.30345E-04  5536   0.193E-02    0.262E-02
DAV:   5    -0.138633941851E+04    0.10740E-04   -0.11449E-04  5408   0.158E-02    0.106E-02
DAV:   6    -0.138633942015E+04   -0.16367E-05   -0.18451E-05  5568   0.516E-03    0.493E-03
DAV:   7    -0.138633942203E+04   -0.18792E-05   -0.41214E-06  5728   0.296E-03    0.235E-03
DAV:   8    -0.138633942363E+04   -0.16062E-05   -0.77663E-07  6240   0.115E-03    0.137E-03
DAV:   9    -0.138633942601E+04   -0.23766E-05   -0.58112E-07  5216   0.118E-03    0.107E-03
DAV:  10    -0.138633942828E+04   -0.22683E-05   -0.24965E-07  5744   0.687E-04    0.729E-04
DAV:  11    -0.138633943022E+04   -0.19436E-05   -0.33801E-07  5296   0.667E-04    0.494E-04
DAV:  12    -0.138633943167E+04   -0.14458E-05   -0.95842E-08  4560   0.392E-04    0.314E-04
DAV:  13    -0.138633943253E+04   -0.86604E-06   -0.64005E-08  4640   0.246E-04    0.180E-04
DAV:  14    -0.138633943310E+04   -0.56525E-06   -0.23119E-08  3648   0.129E-04    0.868E-05
DAV:  15    -0.138633943349E+04   -0.38811E-06   -0.17353E-08  3456   0.109E-04    0.867E-05
DAV:  16    -0.138633943370E+04   -0.21840E-06   -0.74216E-09  3136   0.735E-05    0.598E-05
DAV:  17    -0.138633943384E+04   -0.13772E-06   -0.66668E-09  3104   0.770E-05    0.402E-05
DAV:  18    -0.138633943389E+04   -0.48749E-07   -0.18709E-09  3072   0.540E-05    0.446E-05
DAV:  19    -0.138633943393E+04   -0.39756E-07   -0.84556E-10  3072   0.408E-05    0.303E-05
DAV:  20    -0.138633943395E+04   -0.17841E-07   -0.16471E-10  2944   0.356E-05    0.139E-05
DAV:  21    -0.138633943396E+04   -0.61555E-08    0.24398E-10  2880   0.259E-05
  10 F= -.14058202E+04 E0= -.14058202E+04  d E =-.258947E-03  mag=    -0.0000
       N       E                     dE             d eps       ncg     rms          rms(c)
DAV:   1    -0.138633948752E+04   -0.53575E-04   -0.61742E-01  5120   0.794E-01    0.158E-01
DAV:   2    -0.138633995774E+04   -0.47022E-03   -0.69563E-03  5696   0.766E-02    0.119E-01
DAV:   3    -0.138633985705E+04    0.10069E-03   -0.98087E-04  6240   0.457E-02    0.592E-02
DAV:   4    -0.138633986615E+04   -0.90973E-05   -0.24213E-04  6304   0.216E-02    0.226E-02
DAV:   5    -0.138633985221E+04    0.13947E-04   -0.11252E-04  5472   0.182E-02    0.955E-03
DAV:   6    -0.138633985227E+04   -0.69398E-07   -0.18785E-05  5568   0.551E-03    0.506E-03
DAV:   7    -0.138633985234E+04   -0.65207E-07   -0.42515E-06  5984   0.304E-03    0.254E-03
DAV:   8    -0.138633985234E+04    0.29686E-08   -0.80922E-07  5824   0.177E-03    0.176E-03
DAV:   9    -0.138633985258E+04   -0.24194E-06   -0.56576E-07  6368   0.172E-03    0.757E-04
DAV:  10    -0.138633985311E+04   -0.52602E-06   -0.38213E-07  5824   0.122E-03    0.107E-03
DAV:  11    -0.138633985365E+04   -0.54843E-06   -0.24047E-07  5984   0.839E-04    0.452E-04
DAV:  12    -0.138633985418E+04   -0.52560E-06   -0.68111E-08  4832   0.537E-04    0.220E-04
DAV:  13    -0.138633985460E+04   -0.42295E-06   -0.36051E-08  4320   0.324E-04    0.171E-04
DAV:  14    -0.138633985494E+04   -0.33411E-06   -0.15531E-08  3744   0.148E-04    0.124E-04
DAV:  15    -0.138633985528E+04   -0.33889E-06   -0.12753E-08  3264   0.107E-04    0.868E-05
DAV:  16    -0.138633985544E+04   -0.16580E-06   -0.53930E-09  3072   0.693E-05    0.612E-05
DAV:  17    -0.138633985561E+04   -0.16439E-06   -0.73200E-09  2976   0.800E-05    0.437E-05
DAV:  18    -0.138633985567E+04   -0.64145E-07   -0.33110E-09  3072   0.651E-05    0.558E-05
DAV:  19    -0.138633985570E+04   -0.31578E-07   -0.16164E-09  2976   0.508E-05    0.436E-05
DAV:  20    -0.138633985571E+04   -0.12034E-07   -0.62696E-10  2944   0.514E-05    0.172E-05
DAV:  21    -0.138633985572E+04   -0.47876E-08   -0.16971E-10  2912   0.380E-05
  11 F= -.14058205E+04 E0= -.14058205E+04  d E =-.260377E-03  mag=    -0.0000
       N       E                     dE             d eps       ncg     rms          rms(c)
DAV:   1    -0.138633988003E+04   -0.24316E-04   -0.73906E-02  5120   0.157E-01    0.788E-02
DAV:   2    -0.138633988626E+04   -0.62296E-05   -0.81785E-04  5440   0.158E-02    0.471E-02
DAV:   3    -0.138633985465E+04    0.31606E-04   -0.17985E-04  6048   0.102E-02    0.931E-03
DAV:   4    -0.138633985236E+04    0.22945E-05   -0.18239E-05  5504   0.361E-03    0.546E-03
DAV:   5    -0.138633985147E+04    0.89250E-06   -0.50050E-06  5568   0.177E-03    0.220E-03
DAV:   6    -0.138633985164E+04   -0.16988E-06   -0.63843E-07  5888   0.891E-04    0.126E-03
DAV:   7    -0.138633985209E+04   -0.45288E-06   -0.19609E-07  5008   0.452E-04    0.614E-04
DAV:   8    -0.138633985285E+04   -0.76213E-06   -0.82671E-08  4768   0.274E-04    0.435E-04
DAV:   9    -0.138633985419E+04   -0.13409E-05   -0.10975E-07  4608   0.286E-04    0.227E-04
DAV:  10    -0.138633985498E+04   -0.79050E-06   -0.46887E-08  4256   0.158E-04    0.173E-04
DAV:  11    -0.138633985577E+04   -0.78911E-06   -0.32893E-08  4064   0.111E-04    0.116E-04
DAV:  12    -0.138633985626E+04   -0.49388E-06   -0.17699E-08  3520   0.944E-05    0.632E-05
DAV:  13    -0.138633985663E+04   -0.36352E-06   -0.15891E-08  3744   0.107E-04    0.523E-05
DAV:  14    -0.138633985677E+04   -0.13922E-06   -0.43758E-09  3072   0.104E-04    0.350E-05
DAV:  15    -0.138633985688E+04   -0.11233E-06   -0.31176E-09  3072   0.747E-05    0.234E-05
DAV:  16    -0.138633985694E+04   -0.61715E-07   -0.14196E-09  3072   0.516E-05    0.210E-05
DAV:  17    -0.138633985697E+04   -0.30370E-07   -0.29564E-10  2944   0.386E-05    0.106E-05
DAV:  18    -0.138633985699E+04   -0.16065E-07   -0.69517E-11  2976   0.302E-05    0.154E-05
DAV:  19    -0.138633985699E+04   -0.54133E-08    0.58428E-10  2816   0.168E-05
  12 F= -.14058204E+04 E0= -.14058204E+04  d E =0.205172E-04  mag=     0.0000
       N       E                     dE             d eps       ncg     rms          rms(c)
DAV:   1    -0.138634012593E+04   -0.26895E-03   -0.74287E-02  5184   0.156E-01    0.848E-02
DAV:   2    -0.138634014310E+04   -0.17170E-04   -0.90378E-04  5344   0.189E-02    0.504E-02
DAV:   3    -0.138634010854E+04    0.34565E-04   -0.13318E-04  6112   0.140E-02    0.121E-02
DAV:   4    -0.138634010641E+04    0.21271E-05   -0.14056E-05  6016   0.459E-03    0.570E-03
DAV:   5    -0.138634010605E+04    0.36205E-06   -0.39509E-06  6112   0.333E-03    0.260E-03
DAV:   6    -0.138634010631E+04   -0.26594E-06   -0.77182E-07  6016   0.131E-03    0.140E-03
DAV:   7    -0.138634010732E+04   -0.10095E-05   -0.41293E-07  5664   0.824E-04    0.935E-04
DAV:   8    -0.138634010887E+04   -0.15461E-05   -0.17745E-07  5504   0.708E-04    0.466E-04
DAV:   9    -0.138634011064E+04   -0.17676E-05   -0.20520E-07  4992   0.591E-04    0.413E-04
DAV:  10    -0.138634011250E+04   -0.18617E-05   -0.14579E-07  4512   0.346E-04    0.183E-04
DAV:  11    -0.138634011345E+04   -0.95284E-06   -0.62797E-08  4384   0.192E-04    0.152E-04
DAV:  12    -0.138634011418E+04   -0.72800E-06   -0.32732E-08  3840   0.146E-04    0.847E-05
DAV:  13    -0.138634011464E+04   -0.46018E-06   -0.18613E-08  3488   0.114E-04    0.660E-05
DAV:  14    -0.138634011488E+04   -0.24188E-06   -0.77320E-09  3104   0.873E-05    0.518E-05
DAV:  15    -0.138634011503E+04   -0.14652E-06   -0.44257E-09  3072   0.735E-05    0.243E-05
DAV:  16    -0.138634011514E+04   -0.11078E-06   -0.34828E-09  3008   0.720E-05    0.286E-05
DAV:  17    -0.138634011518E+04   -0.43481E-07   -0.13284E-09  3008   0.531E-05    0.289E-05
DAV:  18    -0.138634011521E+04   -0.22672E-07   -0.14211E-10  2912   0.349E-05    0.129E-05
DAV:  19    -0.138634011521E+04   -0.89349E-08    0.16677E-10  2912   0.262E-05
  13 F= -.14058207E+04 E0= -.14058207E+04  d E =-.288300E-03  mag=     0.0000
       N       E                     dE             d eps       ncg     rms          rms(c)
DAV:   1    -0.138633979305E+04    0.32215E-03   -0.68464E-02  5120   0.162E-01    0.867E-02
DAV:   2    -0.138633982111E+04   -0.28064E-04   -0.97995E-04  5664   0.237E-02    0.500E-02
DAV:   3    -0.138633981573E+04    0.53820E-05   -0.18242E-04  5824   0.152E-02    0.190E-02
DAV:   4    -0.138633981350E+04    0.22287E-05   -0.30353E-05  6208   0.700E-03    0.702E-03
DAV:   5    -0.138633981351E+04   -0.68831E-08   -0.51717E-06  5664   0.285E-03    0.268E-03
DAV:   6    -0.138633981362E+04   -0.10725E-06   -0.68706E-07  6304   0.113E-03    0.147E-03
DAV:   7    -0.138633981398E+04   -0.35969E-06   -0.21557E-07  5296   0.628E-04    0.874E-04
DAV:   8    -0.138633981443E+04   -0.45235E-06   -0.81960E-08  5568   0.473E-04    0.381E-04
DAV:   9    -0.138633981488E+04   -0.45211E-06   -0.42711E-08  4544   0.322E-04    0.252E-04
DAV:  10    -0.138633981531E+04   -0.42724E-06   -0.23933E-08  3872   0.211E-04    0.165E-04
DAV:  11    -0.138633981574E+04   -0.43079E-06   -0.28013E-08  4160   0.184E-04    0.136E-04
DAV:  12    -0.138633981599E+04   -0.25029E-06   -0.14447E-08  3808   0.150E-04    0.768E-05
DAV:  13    -0.138633981616E+04   -0.16775E-06   -0.64409E-09  3232   0.101E-04    0.557E-05
DAV:  14    -0.138633981625E+04   -0.88126E-07   -0.30879E-09  3072   0.639E-05    0.375E-05
DAV:  15    -0.138633981632E+04   -0.69806E-07   -0.29515E-09  3072   0.623E-05    0.239E-05
DAV:  16    -0.138633981635E+04   -0.29002E-07   -0.14703E-09  3008   0.598E-05    0.230E-05
DAV:  17    -0.138633981636E+04   -0.12922E-07   -0.58546E-10  2944   0.398E-05    0.153E-05
DAV:  18    -0.138633981636E+04   -0.60827E-08   -0.38724E-11  2912   0.268E-05
  14 F= -.14058205E+04 E0= -.14058205E+04  d E =0.248268E-03  mag=    -0.0000
       N       E                     dE             d eps       ncg     rms          rms(c)
DAV:   1    -0.138633855761E+04    0.12588E-02   -0.61651E-02  5152   0.131E-01    0.802E-02
DAV:   2    -0.138633859326E+04   -0.35655E-04   -0.49399E-04  5504   0.194E-02    0.451E-02
DAV:   3    -0.138633861757E+04   -0.24304E-04   -0.70290E-05  5696   0.862E-03    0.153E-02
DAV:   4    -0.138633861943E+04   -0.18651E-05   -0.35034E-05  6416   0.705E-03    0.701E-03
DAV:   5    -0.138633861886E+04    0.57543E-06   -0.58861E-06  6512   0.277E-03    0.213E-03
DAV:   6    -0.138633861965E+04   -0.79512E-06   -0.97591E-07  5120   0.105E-03    0.125E-03
DAV:   7    -0.138633862023E+04   -0.58110E-06   -0.15426E-07  5504   0.559E-04    0.596E-04
DAV:   8    -0.138633862075E+04   -0.52016E-06   -0.78773E-08  4832   0.331E-04    0.307E-04
DAV:   9    -0.138633862141E+04   -0.65542E-06   -0.40674E-08  4352   0.210E-04    0.177E-04
DAV:  10    -0.138633862191E+04   -0.49741E-06   -0.29224E-08  4320   0.161E-04    0.127E-04
DAV:  11    -0.138633862223E+04   -0.32390E-06   -0.13858E-08  3648   0.116E-04    0.791E-05
DAV:  12    -0.138633862247E+04   -0.24086E-06   -0.10749E-08  3552   0.897E-05    0.764E-05
DAV:  13    -0.138633862260E+04   -0.13268E-06   -0.47085E-09  3136   0.735E-05    0.534E-05
DAV:  14    -0.138633862271E+04   -0.10454E-06   -0.54536E-09  3264   0.775E-05    0.290E-05
DAV:  15    -0.138633862274E+04   -0.34095E-07   -0.16217E-09  3008   0.563E-05    0.292E-05
DAV:  16    -0.138633862278E+04   -0.37675E-07   -0.10881E-09  3008   0.417E-05    0.133E-05
DAV:  17    -0.138633862280E+04   -0.17884E-07   -0.20139E-10  2944   0.334E-05    0.185E-05
DAV:  18    -0.138633862280E+04   -0.37835E-08    0.25484E-10  2912   0.213E-05
  15 F= -.14058193E+04 E0= -.14058193E+04  d E =0.112969E-02  mag=    -0.0000
       N       E                     dE             d eps       ncg     rms          rms(c)
DAV:   1    -0.138633916788E+04   -0.54508E-03   -0.60671E-02  5120   0.129E-01    0.694E-02
DAV:   2    -0.138633922302E+04   -0.55144E-04   -0.34647E-04  5536   0.155E-02    0.420E-02
DAV:   3    -0.138633925576E+04   -0.32737E-04   -0.37173E-05  6016   0.729E-03    0.734E-03
DAV:   4    -0.138633925637E+04   -0.61435E-06   -0.48406E-06  6496   0.302E-03    0.272E-03
DAV:   5    -0.138633925672E+04   -0.34993E-06   -0.62304E-07  5824   0.112E-03    0.149E-03
DAV:   6    -0.138633925713E+04   -0.40678E-06   -0.18614E-07  5920   0.682E-04    0.790E-04
DAV:   7    -0.138633925765E+04   -0.51726E-06   -0.75387E-08  4704   0.463E-04    0.383E-04
DAV:   8    -0.138633925820E+04   -0.54917E-06   -0.60403E-08  4960   0.363E-04    0.246E-04
DAV:   9    -0.138633925864E+04   -0.44495E-06   -0.22583E-08  4160   0.213E-04    0.150E-04
DAV:  10    -0.138633925910E+04   -0.45433E-06   -0.21385E-08  4000   0.181E-04    0.104E-04
DAV:  11    -0.138633925937E+04   -0.27292E-06   -0.12834E-08  3712   0.127E-04    0.662E-05
DAV:  12    -0.138633925954E+04   -0.16813E-06   -0.55321E-09  3264   0.842E-05    0.458E-05
DAV:  13    -0.138633925966E+04   -0.12344E-06   -0.49236E-09  3168   0.693E-05    0.348E-05
DAV:  14    -0.138633925971E+04   -0.50743E-07   -0.25826E-09  3072   0.698E-05    0.204E-05
DAV:  15    -0.138633925974E+04   -0.31447E-07   -0.18081E-09  3008   0.624E-05    0.198E-05
DAV:  16    -0.138633925976E+04   -0.16051E-07   -0.44594E-10  2944   0.390E-05    0.185E-05
DAV:  17    -0.138633925977E+04   -0.76980E-08   -0.47595E-11  2944   0.310E-05
  16 F= -.14058197E+04 E0= -.14058197E+04  d E =-.313090E-03  mag=     0.0000
       N       E                     dE             d eps       ncg     rms          rms(c)
DAV:   1    -0.138633976569E+04   -0.50593E-03   -0.63653E-02  5216   0.161E-01    0.859E-02
DAV:   2    -0.138633974287E+04    0.22820E-04   -0.87950E-04  5984   0.277E-02    0.448E-02
DAV:   3    -0.138633974541E+04   -0.25433E-05   -0.11809E-04  5632   0.112E-02    0.205E-02
DAV:   4    -0.138633974609E+04   -0.67949E-06   -0.55611E-05  6176   0.879E-03    0.104E-02
DAV:   5    -0.138633974477E+04    0.13219E-05   -0.12924E-05  6528   0.418E-03    0.216E-03
DAV:   6    -0.138633974505E+04   -0.28255E-06   -0.13606E-06  5408   0.128E-03    0.181E-03
DAV:   7    -0.138633974528E+04   -0.22787E-06   -0.36332E-07  5728   0.786E-04    0.495E-04
DAV:   8    -0.138633974563E+04   -0.35291E-06   -0.79475E-08  4768   0.364E-04    0.433E-04
DAV:   9    -0.138633974602E+04   -0.38708E-06   -0.36380E-08  4576   0.275E-04    0.205E-04
DAV:  10    -0.138633974644E+04   -0.41736E-06   -0.28175E-08  4352   0.232E-04    0.194E-04
DAV:  11    -0.138633974680E+04   -0.36685E-06   -0.20595E-08  3904   0.173E-04    0.950E-05
DAV:  12    -0.138633974701E+04   -0.20491E-06   -0.99709E-09  3584   0.994E-05    0.670E-05
DAV:  13    -0.138633974711E+04   -0.10578E-06   -0.20546E-09  3072   0.527E-05    0.479E-05
DAV:  14    -0.138633974727E+04   -0.15834E-06   -0.72639E-09  3392   0.684E-05    0.308E-05
DAV:  15    -0.138633974729E+04   -0.19674E-07   -0.87091E-10  2944   0.548E-05    0.239E-05
DAV:  16    -0.138633974734E+04   -0.44121E-07   -0.74800E-10  2976   0.434E-05    0.175E-05
DAV:  17    -0.138633974736E+04   -0.24796E-07   -0.18210E-10  2944   0.368E-05    0.189E-05
DAV:  18    -0.138633974737E+04   -0.12340E-07    0.25086E-10  2944   0.246E-05    0.985E-06
DAV:  19    -0.138633974739E+04   -0.11118E-07    0.41312E-10  2944   0.251E-05    0.126E-05
DAV:  20    -0.138633974739E+04   -0.32887E-08    0.56854E-10  2752   0.149E-05
  17 F= -.14058204E+04 E0= -.14058204E+04  d E =-.766338E-03  mag=    -0.0000
       N       E                     dE             d eps       ncg     rms          rms(c)
DAV:   1    -0.138633979794E+04   -0.50557E-04   -0.63191E-02  5184   0.155E-01    0.691E-02
DAV:   2    -0.138633979035E+04    0.75950E-05   -0.10382E-03  5696   0.219E-02    0.418E-02
DAV:   3    -0.138633975928E+04    0.31069E-04   -0.97771E-05  6336   0.867E-03    0.187E-02
DAV:   4    -0.138633974562E+04    0.13655E-04   -0.21576E-05  5920   0.422E-03    0.487E-03
DAV:   5    -0.138633974591E+04   -0.29079E-06   -0.30112E-06  6432   0.172E-03    0.289E-03
DAV:   6    -0.138633974812E+04   -0.22042E-05   -0.64842E-07  5376   0.862E-04    0.136E-03
DAV:   7    -0.138633975168E+04   -0.35571E-05   -0.41234E-07  5184   0.739E-04    0.774E-04
DAV:   8    -0.138633975585E+04   -0.41717E-05   -0.43961E-07  5120   0.613E-04    0.540E-04
DAV:   9    -0.138633975998E+04   -0.41379E-05   -0.29532E-07  4480   0.369E-04    0.313E-04
DAV:  10    -0.138633976300E+04   -0.30129E-05   -0.21132E-07  4480   0.279E-04    0.194E-04
DAV:  11    -0.138633976457E+04   -0.15734E-05   -0.90116E-08  4704   0.181E-04    0.168E-04
DAV:  12    -0.138633976552E+04   -0.94718E-06   -0.26231E-08  3856   0.104E-04    0.922E-05
DAV:  13    -0.138633976629E+04   -0.77224E-06   -0.31307E-08  4256   0.112E-04    0.784E-05
DAV:  14    -0.138633976654E+04   -0.25197E-06   -0.37457E-09  3072   0.719E-05    0.536E-05
DAV:  15    -0.138633976672E+04   -0.17426E-06   -0.37401E-09  3104   0.736E-05    0.312E-05
DAV:  16    -0.138633976680E+04   -0.83019E-07   -0.16000E-09  3008   0.644E-05    0.313E-05
DAV:  17    -0.138633976687E+04   -0.67550E-07   -0.11128E-09  3072   0.451E-05    0.188E-05
DAV:  18    -0.138633976689E+04   -0.22163E-07   -0.44681E-11  2944   0.361E-05    0.104E-05
DAV:  19    -0.138633976690E+04   -0.12078E-07    0.30982E-10  2944   0.248E-05    0.126E-05
DAV:  20    -0.138633976691E+04   -0.77271E-08    0.54242E-10  2944   0.156E-05
  18 F= -.14058204E+04 E0= -.14058204E+04  d E =0.364178E-04  mag=     0.0000
       N       E                     dE             d eps       ncg     rms          rms(c)
DAV:   1    -0.138633967297E+04    0.93928E-04   -0.63265E-02  5120   0.156E-01    0.683E-02
DAV:   2    -0.138633966324E+04    0.97352E-05   -0.90195E-04  5856   0.220E-02    0.415E-02
DAV:   3    -0.138633964612E+04    0.17115E-04   -0.83803E-05  6400   0.916E-03    0.188E-02
DAV:   4    -0.138633963814E+04    0.79854E-05   -0.16378E-05  5760   0.416E-03    0.400E-03
DAV:   5    -0.138633963770E+04    0.44258E-06   -0.22179E-06  6400   0.165E-03    0.253E-03
DAV:   6    -0.138633963828E+04   -0.58110E-06   -0.44777E-07  5120   0.815E-04    0.123E-03
DAV:   7    -0.138633963988E+04   -0.16059E-05   -0.23066E-07  5408   0.654E-04    0.711E-04
DAV:   8    -0.138633964192E+04   -0.20367E-05   -0.19843E-07  4912   0.513E-04    0.456E-04
DAV:   9    -0.138633964424E+04   -0.23259E-05   -0.15769E-07  4688   0.347E-04    0.300E-04
DAV:  10    -0.138633964615E+04   -0.19097E-05   -0.97958E-08  4352   0.231E-04    0.179E-04
DAV:  11    -0.138633964741E+04   -0.12508E-05   -0.53892E-08  4192   0.128E-04    0.116E-04
DAV:  12    -0.138633964837E+04   -0.96667E-06   -0.35254E-08  4128   0.957E-05    0.706E-05
DAV:  13    -0.138633964884E+04   -0.47049E-06   -0.10407E-08  3392   0.684E-05    0.461E-05
DAV:  14    -0.138633964916E+04   -0.31362E-06   -0.79900E-09  3280   0.721E-05    0.309E-05
DAV:  15    -0.138633964930E+04   -0.13920E-06   -0.32740E-09  3072   0.621E-05    0.224E-05
DAV:  16    -0.138633964939E+04   -0.91648E-07   -0.18699E-09  3040   0.480E-05    0.128E-05
DAV:  17    -0.138633964942E+04   -0.35725E-07   -0.66661E-10  2944   0.406E-05    0.112E-05
DAV:  18    -0.138633964943E+04   -0.11714E-07    0.85583E-11  2944   0.260E-05    0.844E-06
DAV:  19    -0.138633964944E+04   -0.10157E-07    0.28460E-10  2912   0.197E-05    0.555E-06
DAV:  20    -0.138633964945E+04   -0.48894E-08    0.62105E-10  2880   0.125E-05
  19 F= -.14058201E+04 E0= -.14058201E+04  d E =0.289320E-03  mag=    -0.0000
       N       E                     dE             d eps       ncg     rms          rms(c)
DAV:   1    -0.138633957604E+04    0.73403E-04   -0.69262E-02  5104   0.194E-01    0.831E-02
DAV:   2    -0.138633957555E+04    0.49286E-06   -0.69570E-04  5408   0.205E-02    0.487E-02
DAV:   3    -0.138633956998E+04    0.55640E-05   -0.20787E-04  5696   0.117E-02    0.142E-02
DAV:   4    -0.138633956710E+04    0.28843E-05   -0.21578E-05  5472   0.392E-03    0.887E-03
DAV:   5    -0.138633956668E+04    0.41594E-06   -0.86015E-06  5344   0.241E-03    0.214E-03
DAV:   6    -0.138633956686E+04   -0.17222E-06   -0.91551E-07  5568   0.970E-04    0.913E-04
DAV:   7    -0.138633956700E+04   -0.13996E-06   -0.84461E-08  5152   0.273E-04    0.571E-04
DAV:   8    -0.138633956722E+04   -0.21938E-06   -0.32113E-08  4064   0.199E-04    0.189E-04
DAV:   9    -0.138633956735E+04   -0.13075E-06   -0.67678E-09  3232   0.100E-04    0.125E-04
DAV:  10    -0.138633956753E+04   -0.18033E-06   -0.11462E-08  3584   0.114E-04    0.112E-04
DAV:  11    -0.138633956763E+04   -0.10715E-06   -0.39888E-09  3136   0.869E-05    0.682E-05
DAV:  12    -0.138633956775E+04   -0.11383E-06   -0.80191E-09  3232   0.109E-04    0.735E-05
DAV:  13    -0.138633956780E+04   -0.55705E-07   -0.42369E-09  3072   0.107E-04    0.520E-05
DAV:  14    -0.138633956784E+04   -0.34051E-07   -0.30093E-09  3072   0.868E-05    0.287E-05
DAV:  15    -0.138633956786E+04   -0.21711E-07   -0.12082E-09  3008   0.551E-05    0.320E-05
DAV:  16    -0.138633956787E+04   -0.15018E-07   -0.33855E-10  2976   0.320E-05    0.199E-05
DAV:  17    -0.138633956788E+04   -0.56170E-08    0.15859E-10  2880   0.296E-05
  20 F= -.14058202E+04 E0= -.14058202E+04  d E =-.101625E-03  mag=     0.0000
       N       E                     dE             d eps       ncg     rms          rms(c)
DAV:   1    -0.138633962968E+04   -0.61808E-04   -0.81101E-02  4352   0.196E-01    0.122E-01
DAV:   2    -0.138633951323E+04    0.11645E-03   -0.13119E-03  4608   0.254E-02    0.695E-02
DAV:   3    -0.138633947549E+04    0.37739E-04   -0.60738E-04  4896   0.161E-02    0.237E-02
DAV:   4    -0.138633946492E+04    0.10574E-04   -0.55130E-05  4832   0.515E-03    0.154E-02
DAV:   5    -0.138633946341E+04    0.15080E-05   -0.17381E-05  5104   0.288E-03    0.339E-03
DAV:   6    -0.138633946344E+04   -0.34051E-07   -0.24553E-06  4896   0.113E-03    0.102E-03
DAV:   7    -0.138633946378E+04   -0.33519E-06   -0.25301E-07  4448   0.376E-04    0.777E-04
DAV:   8    -0.138633946414E+04   -0.36188E-06   -0.46419E-08  3904   0.190E-04    0.304E-04
DAV:   9    -0.138633946452E+04   -0.37593E-06   -0.27480E-08  3840   0.122E-04    0.191E-04
DAV:  10    -0.138633946485E+04   -0.32988E-06   -0.11133E-08  3712   0.102E-04    0.102E-04
DAV:  11    -0.138633946515E+04   -0.30188E-06   -0.11196E-08  3744   0.935E-05    0.685E-05
DAV:  12    -0.138633946537E+04   -0.21809E-06   -0.78380E-09  3584   0.944E-05    0.503E-05
DAV:  13    -0.138633946551E+04   -0.14697E-06   -0.54936E-09  3424   0.885E-05    0.351E-05
DAV:  14    -0.138633946560E+04   -0.88839E-07   -0.27957E-09  3104   0.713E-05    0.258E-05
DAV:  15    -0.138633946566E+04   -0.60303E-07   -0.17894E-09  2976   0.540E-05    0.205E-05
DAV:  16    -0.138633946569E+04   -0.24724E-07   -0.43515E-10  2944   0.389E-05    0.128E-05
DAV:  17    -0.138633946571E+04   -0.24083E-07   -0.57919E-11  2880   0.331E-05    0.154E-05
DAV:  18    -0.138633946572E+04   -0.10637E-07    0.35719E-10  2912   0.221E-05    0.138E-05
DAV:  19    -0.138633946572E+04   -0.25320E-08    0.64013E-10  2752   0.155E-05
  21 F= -.14058201E+04 E0= -.14058201E+04  d E =0.561554E-04  mag=     0.0000
       N       E                     dE             d eps       ncg     rms          rms(c)
DAV:   1    -0.138633923980E+04    0.22592E-03   -0.72467E-02  4352   0.189E-01    0.769E-02
DAV:   2    -0.138633926174E+04   -0.21939E-04   -0.47954E-04  4384   0.139E-02    0.464E-02
DAV:   3    -0.138633926306E+04   -0.13140E-05   -0.62939E-05  5008   0.543E-03    0.467E-03
DAV:   4    -0.138633926318E+04   -0.12130E-06   -0.40861E-06  4960   0.142E-03    0.266E-03
DAV:   5    -0.138633926332E+04   -0.14034E-06   -0.13270E-06  4608   0.904E-04    0.958E-04
DAV:   6    -0.138633926352E+04   -0.20578E-06   -0.15874E-07  4672   0.363E-04    0.540E-04
DAV:   7    -0.138633926384E+04   -0.31840E-06   -0.47783E-08  3904   0.167E-04    0.233E-04
DAV:   8    -0.138633926417E+04   -0.32394E-06   -0.15957E-08  3840   0.981E-05    0.158E-04
DAV:   9    -0.138633926458E+04   -0.41511E-06   -0.19402E-08  3904   0.107E-04    0.807E-05
DAV:  10    -0.138633926483E+04   -0.24828E-06   -0.10282E-08  3648   0.935E-05    0.616E-05
DAV:  11    -0.138633926499E+04   -0.15958E-06   -0.56895E-09  3296   0.102E-04    0.413E-05
DAV:  12    -0.138633926511E+04   -0.11564E-06   -0.68515E-09  3424   0.105E-04    0.282E-05
DAV:  13    -0.138633926516E+04   -0.50131E-07   -0.22218E-09  3072   0.691E-05    0.172E-05
DAV:  14    -0.138633926518E+04   -0.25131E-07   -0.76586E-10  2944   0.409E-05    0.130E-05
DAV:  15    -0.138633926519E+04   -0.98516E-08   -0.50289E-11  2944   0.312E-05
  22 F= -.14058198E+04 E0= -.14058198E+04  d E =0.325642E-03  mag=     0.0000
       N       E                     dE             d eps       ncg     rms          rms(c)
DAV:   1    -0.138633973140E+04   -0.46622E-03   -0.76059E-02  4608   0.201E-01    0.961E-02
DAV:   2    -0.138633971572E+04    0.15681E-04   -0.91307E-04  4800   0.206E-02    0.580E-02
DAV:   3    -0.138633970555E+04    0.10167E-04   -0.29522E-04  5024   0.110E-02    0.169E-02
DAV:   4    -0.138633969939E+04    0.61603E-05   -0.30194E-05  4416   0.367E-03    0.944E-03
DAV:   5    -0.138633969913E+04    0.26388E-06   -0.10478E-05  4512   0.207E-03    0.182E-03
DAV:   6    -0.138633969929E+04   -0.16046E-06   -0.67002E-07  4352   0.613E-04    0.899E-04
DAV:   7    -0.138633969953E+04   -0.24465E-06   -0.11395E-07  4512   0.245E-04    0.421E-04
DAV:   8    -0.138633969984E+04   -0.30722E-06   -0.34495E-08  4000   0.149E-04    0.212E-04
DAV:   9    -0.138633970017E+04   -0.33564E-06   -0.21379E-08  3968   0.135E-04    0.115E-04
DAV:  10    -0.138633970042E+04   -0.24840E-06   -0.15380E-08  3760   0.149E-04    0.879E-05
DAV:  11    -0.138633970059E+04   -0.16353E-06   -0.12250E-08  3792   0.163E-04    0.530E-05
DAV:  12    -0.138633970069E+04   -0.10281E-06   -0.65826E-09  3440   0.120E-04    0.338E-05
DAV:  13    -0.138633970078E+04   -0.94544E-07   -0.42363E-09  3152   0.719E-05    0.235E-05
DAV:  14    -0.138633970082E+04   -0.36831E-07   -0.15445E-09  2944   0.552E-05    0.157E-05
DAV:  15    -0.138633970084E+04   -0.17797E-07   -0.46363E-10  2944   0.375E-05    0.899E-06
DAV:  16    -0.138633970085E+04   -0.14581E-07   -0.98994E-11  2912   0.248E-05    0.798E-06
DAV:  17    -0.138633970086E+04   -0.74651E-08    0.35148E-10  2912   0.179E-05
  23 F= -.14058204E+04 E0= -.14058204E+04  d E =-.569715E-03  mag=     0.0000
       N       E                     dE             d eps       ncg     rms          rms(c)
DAV:   1    -0.138633994342E+04   -0.24257E-03   -0.74634E-02  4608   0.190E-01    0.896E-02
DAV:   2    -0.138633992843E+04    0.14992E-04   -0.63071E-04  4992   0.168E-02    0.526E-02
DAV:   3    -0.138633992473E+04    0.36967E-05   -0.19060E-04  5536   0.934E-03    0.126E-02
DAV:   4    -0.138633992172E+04    0.30148E-05   -0.18022E-05  5024   0.318E-03    0.792E-03
DAV:   5    -0.138633992156E+04    0.16083E-06   -0.74255E-06  4896   0.196E-03    0.160E-03
DAV:   6    -0.138633992178E+04   -0.22104E-06   -0.53303E-07  4736   0.653E-04    0.839E-04
DAV:   7    -0.138633992199E+04   -0.21575E-06   -0.83279E-08  4544   0.237E-04    0.442E-04
DAV:   8    -0.138633992230E+04   -0.30480E-06   -0.25263E-08  3776   0.129E-04    0.199E-04
DAV:   9    -0.138633992253E+04   -0.23076E-06   -0.93489E-09  3488   0.982E-05    0.116E-04
DAV:  10    -0.138633992282E+04   -0.29089E-06   -0.12798E-08  3680   0.905E-05    0.117E-04
DAV:  11    -0.138633992297E+04   -0.15293E-06   -0.45255E-09  3264   0.843E-05    0.621E-05
DAV:  12    -0.138633992311E+04   -0.13653E-06   -0.62042E-09  3392   0.856E-05    0.626E-05
DAV:  13    -0.138633992317E+04   -0.59139E-07   -0.18742E-09  2976   0.721E-05    0.431E-05
DAV:  14    -0.138633992322E+04   -0.52052E-07   -0.27708E-09  3008   0.685E-05    0.524E-05
DAV:  15    -0.138633992324E+04   -0.18714E-07   -0.60224E-10  2880   0.530E-05    0.260E-05
DAV:  16    -0.138633992325E+04   -0.11540E-07   -0.63324E-10  2944   0.442E-05    0.392E-05
DAV:  17    -0.138633992326E+04   -0.53260E-08    0.22487E-10  2880   0.320E-05
  24 F= -.14058205E+04 E0= -.14058205E+04  d E =-.116065E-03  mag=     0.0000
       N       E                     dE             d eps       ncg     rms          rms(c)
DAV:   1    -0.138633900642E+04    0.91683E-03   -0.83355E-02  4608   0.197E-01    0.133E-01
DAV:   2    -0.138633884670E+04    0.15971E-03   -0.16016E-03  4960   0.291E-02    0.739E-02
DAV:   3    -0.138633879892E+04    0.47780E-04   -0.68716E-04  4800   0.175E-02    0.256E-02
DAV:   4    -0.138633878817E+04    0.10752E-04   -0.67789E-05  4976   0.558E-03    0.165E-02
DAV:   5    -0.138633878671E+04    0.14617E-05   -0.17517E-05  5728   0.294E-03    0.342E-03
DAV:   6    -0.138633878662E+04    0.92317E-07   -0.21800E-06  4592   0.107E-03    0.105E-03
DAV:   7    -0.138633878682E+04   -0.20549E-06   -0.23101E-07  4960   0.401E-04    0.729E-04
DAV:   8    -0.138633878705E+04   -0.22790E-06   -0.40318E-08  3936   0.198E-04    0.301E-04
DAV:   9    -0.138633878729E+04   -0.23586E-06   -0.22050E-08  3744   0.122E-04    0.155E-04
DAV:  10    -0.138633878749E+04   -0.20086E-06   -0.71186E-09  3392   0.866E-05    0.103E-04
DAV:  11    -0.138633878768E+04   -0.19275E-06   -0.71736E-09  3392   0.770E-05    0.663E-05
DAV:  12    -0.138633878784E+04   -0.16358E-06   -0.64184E-09  3264   0.790E-05    0.406E-05
DAV:  13    -0.138633878795E+04   -0.10882E-06   -0.47032E-09  3168   0.716E-05    0.305E-05
DAV:  14    -0.138633878800E+04   -0.52882E-07   -0.16737E-09  2944   0.524E-05    0.214E-05
DAV:  15    -0.138633878806E+04   -0.57073E-07   -0.18566E-09  3008   0.436E-05    0.135E-05
DAV:  16    -0.138633878808E+04   -0.15905E-07   -0.33688E-10  2880   0.330E-05    0.981E-06
DAV:  17    -0.138633878809E+04   -0.97643E-08    0.16192E-10  2880   0.226E-05
  25 F= -.14058194E+04 E0= -.14058194E+04  d E =0.114827E-02  mag=    -0.0000
       N       E                     dE             d eps       ncg     rms          rms(c)
DAV:   1    -0.138633964278E+04   -0.85470E-03   -0.79675E-02  5120   0.212E-01    0.116E-01
DAV:   2    -0.138633956914E+04    0.73639E-04   -0.13537E-03  5184   0.282E-02    0.678E-02
DAV:   3    -0.138633953861E+04    0.30538E-04   -0.63375E-04  5312   0.176E-02    0.243E-02
DAV:   4    -0.138633952713E+04    0.11472E-04   -0.66226E-05  5152   0.553E-03    0.163E-02
DAV:   5    -0.138633952482E+04    0.23113E-05   -0.21543E-05  5056   0.324E-03    0.370E-03
DAV:   6    -0.138633952464E+04    0.18191E-06   -0.28429E-06  4896   0.131E-03    0.109E-03
DAV:   7    -0.138633952472E+04   -0.79366E-07   -0.35706E-07  4832   0.478E-04    0.105E-03
DAV:   8    -0.138633952485E+04   -0.13318E-06   -0.57623E-08  4064   0.272E-04    0.362E-04
DAV:   9    -0.138633952499E+04   -0.13821E-06   -0.35226E-08  4160   0.204E-04    0.213E-04
DAV:  10    -0.138633952515E+04   -0.15834E-06   -0.76511E-09  3392   0.118E-04    0.122E-04
DAV:  11    -0.138633952530E+04   -0.14828E-06   -0.77128E-09  3520   0.116E-04    0.858E-05
DAV:  12    -0.138633952545E+04   -0.14927E-06   -0.89910E-09  3680   0.118E-04    0.653E-05
DAV:  13    -0.138633952554E+04   -0.88694E-07   -0.44977E-09  3136   0.893E-05    0.544E-05
DAV:  14    -0.138633952558E+04   -0.48327E-07   -0.26954E-09  3008   0.715E-05    0.408E-05
DAV:  15    -0.138633952562E+04   -0.37093E-07   -0.21995E-09  2976   0.567E-05    0.306E-05
DAV:  16    -0.138633952563E+04   -0.14159E-07   -0.89727E-10  2928   0.448E-05    0.260E-05
DAV:  17    -0.138633952564E+04   -0.94733E-08   -0.58576E-10  2960   0.391E-05
  26 F= -.14058202E+04 E0= -.14058202E+04  d E =-.835821E-03  mag=     0.0000
       N       E                     dE             d eps       ncg     rms          rms(c)
DAV:   1    -0.138633962477E+04   -0.99140E-04   -0.79561E-02  4928   0.209E-01    0.118E-01
DAV:   2    -0.138633951269E+04    0.11209E-03   -0.10439E-03  5312   0.252E-02    0.661E-02
DAV:   3    -0.138633948249E+04    0.30201E-04   -0.53808E-04  5504   0.166E-02    0.228E-02
DAV:   4    -0.138633947309E+04    0.94006E-05   -0.46620E-05  5088   0.508E-03    0.149E-02
DAV:   5    -0.138633947168E+04    0.14094E-05   -0.17509E-05  5024   0.300E-03    0.306E-03
DAV:   6    -0.138633947157E+04    0.10687E-06   -0.18363E-06  4960   0.119E-03    0.104E-03
DAV:   7    -0.138633947160E+04   -0.27168E-07   -0.25173E-07  5184   0.396E-04    0.932E-04
DAV:   8    -0.138633947167E+04   -0.75452E-07   -0.47890E-08  4352   0.289E-04    0.341E-04
DAV:   9    -0.138633947174E+04   -0.64654E-07   -0.30753E-08  4384   0.221E-04    0.204E-04
DAV:  10    -0.138633947182E+04   -0.85551E-07   -0.84729E-09  3456   0.130E-04    0.119E-04
DAV:  11    -0.138633947189E+04   -0.68350E-07   -0.29996E-09  3104   0.105E-04    0.805E-05
DAV:  12    -0.138633947199E+04   -0.99128E-07   -0.93641E-09  3552   0.148E-04    0.797E-05
DAV:  13    -0.138633947203E+04   -0.40629E-07   -0.32690E-09  3008   0.934E-05    0.607E-05
DAV:  14    -0.138633947206E+04   -0.25888E-07   -0.21370E-09  2944   0.716E-05    0.407E-05
DAV:  15    -0.138633947208E+04   -0.26659E-07   -0.17368E-09  3008   0.623E-05    0.354E-05
DAV:  16    -0.138633947210E+04   -0.14596E-07   -0.73326E-10  2944   0.462E-05    0.262E-05
DAV:  17    -0.138633947211E+04   -0.98371E-08   -0.37357E-10  2944   0.451E-05
  27 F= -.14058201E+04 E0= -.14058201E+04  d E =0.827771E-04  mag=    -0.0000
       N       E                     dE             d eps       ncg     rms          rms(c)
DAV:   1    -0.138633950098E+04   -0.28886E-04   -0.72765E-02  4960   0.202E-01    0.789E-02
DAV:   2    -0.138633952231E+04   -0.21325E-04   -0.47705E-04  5344   0.150E-02    0.476E-02
DAV:   3    -0.138633951968E+04    0.26264E-05   -0.75364E-05  5408   0.622E-03    0.578E-03
DAV:   4    -0.138633951935E+04    0.33312E-06   -0.50262E-06  4832   0.167E-03    0.330E-03
DAV:   5    -0.138633951936E+04   -0.83528E-08   -0.24814E-06  4800   0.114E-03    0.123E-03
DAV:   6    -0.138633951953E+04   -0.17209E-06   -0.27863E-07  4384   0.427E-04    0.660E-04
DAV:   7    -0.138633951984E+04   -0.31429E-06   -0.65134E-08  4096   0.209E-04    0.285E-04
DAV:   8    -0.138633952018E+04   -0.33547E-06   -0.27137E-08  4192   0.131E-04    0.183E-04
DAV:   9    -0.138633952053E+04   -0.35360E-06   -0.15460E-08  3872   0.107E-04    0.946E-05
DAV:  10    -0.138633952079E+04   -0.26102E-06   -0.12240E-08  3856   0.948E-05    0.584E-05
DAV:  11    -0.138633952095E+04   -0.15600E-06   -0.56085E-09  3232   0.868E-05    0.434E-05
DAV:  12    -0.138633952108E+04   -0.12630E-06   -0.67194E-09  3360   0.101E-04    0.297E-05
DAV:  13    -0.138633952116E+04   -0.85973E-07   -0.49998E-09  3136   0.816E-05    0.163E-05
DAV:  14    -0.138633952119E+04   -0.30195E-07   -0.12332E-09  3008   0.440E-05    0.129E-05
DAV:  15    -0.138633952121E+04   -0.21566E-07   -0.32249E-10  2912   0.324E-05    0.838E-06
DAV:  16    -0.138633952122E+04   -0.98953E-08    0.13506E-10  2912   0.233E-05
  28 F= -.14058199E+04 E0= -.14058199E+04  d E =0.252937E-03  mag=     0.0000
       N       E                     dE             d eps       ncg     rms          rms(c)
DAV:   1    -0.138633984837E+04   -0.32715E-03   -0.76817E-02  5184   0.212E-01    0.105E-01
DAV:   2    -0.138633980694E+04    0.41430E-04   -0.10596E-03  5312   0.240E-02    0.633E-02
DAV:   3    -0.138633977921E+04    0.27725E-04   -0.50761E-04  5632   0.165E-02    0.221E-02
DAV:   4    -0.138633976995E+04    0.92653E-05   -0.54617E-05  5232   0.531E-03    0.139E-02
DAV:   5    -0.138633976807E+04    0.18783E-05   -0.20450E-05  5264   0.306E-03    0.267E-03
DAV:   6    -0.138633976810E+04   -0.31738E-07   -0.12355E-06  5056   0.958E-04    0.117E-03
DAV:   7    -0.138633976827E+04   -0.17075E-06   -0.20405E-07  4560   0.346E-04    0.737E-04
DAV:   8    -0.138633976856E+04   -0.29220E-06   -0.52938E-08  4320   0.268E-04    0.320E-04
DAV:   9    -0.138633976882E+04   -0.25316E-06   -0.30228E-08  4128   0.194E-04    0.198E-04
DAV:  10    -0.138633976913E+04   -0.31704E-06   -0.14599E-08  3872   0.131E-04    0.142E-04
DAV:  11    -0.138633976932E+04   -0.18522E-06   -0.66009E-09  3456   0.965E-05    0.961E-05
DAV:  12    -0.138633976955E+04   -0.23091E-06   -0.13373E-08  3904   0.107E-04    0.640E-05
DAV:  13    -0.138633976965E+04   -0.98808E-07   -0.36866E-09  3168   0.729E-05    0.511E-05
DAV:  14    -0.138633976972E+04   -0.66910E-07   -0.26758E-09  3008   0.651E-05    0.331E-05
DAV:  15    -0.138633976975E+04   -0.36962E-07   -0.17954E-09  3008   0.601E-05    0.239E-05
DAV:  16    -0.138633976977E+04   -0.19980E-07   -0.81551E-10  2944   0.479E-05    0.159E-05
DAV:  17    -0.138633976979E+04   -0.13883E-07   -0.41500E-10  3008   0.338E-05    0.213E-05
DAV:  18    -0.138633976979E+04   -0.39436E-08    0.41715E-10  2752   0.215E-05
  29 F= -.14058203E+04 E0= -.14058203E+04  d E =-.392569E-03  mag=     0.0000
       N       E                     dE             d eps       ncg     rms          rms(c)
DAV:   1    -0.138633943359E+04    0.33619E-03   -0.81659E-02  5024   0.203E-01    0.132E-01
DAV:   2    -0.138633924400E+04    0.18959E-03   -0.13216E-03  5376   0.281E-02    0.720E-02
DAV:   3    -0.138633920143E+04    0.42576E-04   -0.59994E-04  5472   0.172E-02    0.247E-02
DAV:   4    -0.138633919139E+04    0.10031E-04   -0.61956E-05  5568   0.556E-03    0.157E-02
DAV:   5    -0.138633919053E+04    0.86844E-06   -0.14311E-05  5824   0.283E-03    0.337E-03
DAV:   6    -0.138633919032E+04    0.20111E-06   -0.17765E-06  5184   0.114E-03    0.119E-03
DAV:   7    -0.138633919030E+04    0.20795E-07   -0.24938E-07  5248   0.401E-04    0.834E-04
DAV:   8    -0.138633919033E+04   -0.29264E-07   -0.42311E-08  4128   0.288E-04    0.344E-04
DAV:   9    -0.138633919037E+04   -0.39814E-07   -0.25979E-08  4032   0.211E-04    0.176E-04
DAV:  10    -0.138633919045E+04   -0.76630E-07   -0.85896E-09  3488   0.142E-04    0.121E-04
DAV:  11    -0.138633919052E+04   -0.66444E-07   -0.42590E-09  3168   0.122E-04    0.825E-05
DAV:  12    -0.138633919061E+04   -0.98240E-07   -0.11107E-08  3456   0.169E-04    0.770E-05
DAV:  13    -0.138633919066E+04   -0.41022E-07   -0.55844E-09  3488   0.103E-04    0.591E-05
DAV:  14    -0.138633919068E+04   -0.20562E-07   -0.14314E-09  2944   0.583E-05    0.327E-05
DAV:  15    -0.138633919070E+04   -0.26354E-07   -0.92892E-10  3008   0.443E-05    0.224E-05
DAV:  16    -0.138633919072E+04   -0.19048E-07   -0.52803E-10  2944   0.422E-05    0.160E-05
DAV:  17    -0.138633919073E+04   -0.13242E-07   -0.37885E-11  2912   0.289E-05    0.119E-05
DAV:  18    -0.138633919074E+04   -0.10245E-07    0.15426E-10  2912   0.239E-05    0.133E-05
DAV:  19    -0.138633919075E+04   -0.35216E-08    0.37850E-10  2752   0.167E-05
  30 F= -.14058198E+04 E0= -.14058198E+04  d E =0.469722E-03  mag=     0.0000
       N       E                     dE             d eps       ncg     rms          rms(c)
DAV:   1    -0.138633944592E+04   -0.25518E-03   -0.73511E-02  5056   0.194E-01    0.797E-02
DAV:   2    -0.138633947125E+04   -0.25326E-04   -0.53223E-04  5664   0.156E-02    0.482E-02
DAV:   3    -0.138633946705E+04    0.41951E-05   -0.74355E-05  5504   0.643E-03    0.543E-03
DAV:   4    -0.138633946696E+04    0.89101E-07   -0.47829E-06  5696   0.193E-03    0.306E-03
DAV:   5    -0.138633946682E+04    0.14594E-06   -0.16041E-06  5344   0.112E-03    0.113E-03
DAV:   6    -0.138633946685E+04   -0.31301E-07   -0.22093E-07  4896   0.514E-04    0.550E-04
DAV:   7    -0.138633946692E+04   -0.76412E-07   -0.36613E-08  4032   0.215E-04    0.256E-04
DAV:   8    -0.138633946703E+04   -0.10806E-06   -0.14314E-08  3616   0.131E-04    0.158E-04
DAV:   9    -0.138633946714E+04   -0.10637E-06   -0.52371E-09  3200   0.106E-04    0.868E-05
DAV:  10    -0.138633946727E+04   -0.13306E-06   -0.10064E-08  3520   0.110E-04    0.116E-04
DAV:  11    -0.138633946734E+04   -0.63999E-07   -0.43374E-09  3072   0.108E-04    0.439E-05
DAV:  12    -0.138633946740E+04   -0.66662E-07   -0.66312E-09  3040   0.101E-04    0.110E-04
DAV:  13    -0.138633946742E+04   -0.17259E-07   -0.13819E-09  2944   0.732E-05    0.753E-05
DAV:  14    -0.138633946745E+04   -0.32029E-07   -0.50702E-09  3040   0.965E-05    0.864E-05
DAV:  15    -0.138633946747E+04   -0.15760E-07   -0.12421E-09  2944   0.702E-05    0.389E-05
DAV:  16    -0.138633946747E+04   -0.77562E-08   -0.25039E-10  2880   0.362E-05
  31 F= -.14058199E+04 E0= -.14058199E+04  d E =-.157353E-03  mag=    -0.0000
       N       E                     dE             d eps       ncg     rms          rms(c)
DAV:   1    -0.138633846801E+04    0.99945E-03   -0.82085E-02  5120   0.212E-01    0.126E-01
DAV:   2    -0.138633835483E+04    0.11318E-03   -0.15858E-03  5248   0.307E-02    0.752E-02
DAV:   3    -0.138633831061E+04    0.44220E-04   -0.88019E-04  5376   0.206E-02    0.284E-02
DAV:   4    -0.138633829463E+04    0.15980E-04   -0.94969E-05  5152   0.663E-03    0.185E-02
DAV:   5    -0.138633829184E+04    0.27944E-05   -0.33170E-05  5376   0.399E-03    0.368E-03
DAV:   6    -0.138633829178E+04    0.58746E-07   -0.28095E-06  4736   0.134E-03    0.121E-03
DAV:   7    -0.138633829187E+04   -0.89320E-07   -0.47396E-07  5312   0.525E-04    0.950E-04
DAV:   8    -0.138633829200E+04   -0.13162E-06   -0.66737E-08  4032   0.250E-04    0.334E-04
DAV:   9    -0.138633829214E+04   -0.14053E-06   -0.29386E-08  3968   0.177E-04    0.210E-04
DAV:  10    -0.138633829230E+04   -0.15325E-06   -0.73676E-09  3232   0.117E-04    0.123E-04
DAV:  11    -0.138633829245E+04   -0.15028E-06   -0.91237E-09  3648   0.109E-04    0.746E-05
DAV:  12    -0.138633829256E+04   -0.11596E-06   -0.70968E-09  3296   0.117E-04    0.499E-05
DAV:  13    -0.138633829262E+04   -0.62792E-07   -0.50169E-09  3264   0.112E-04    0.403E-05
DAV:  14    -0.138633829267E+04   -0.45839E-07   -0.39321E-09  3136   0.101E-04    0.256E-05
DAV:  15    -0.138633829270E+04   -0.31840E-07   -0.31082E-09  3072   0.843E-05    0.208E-05
DAV:  16    -0.138633829271E+04   -0.12442E-07   -0.71036E-10  2944   0.427E-05    0.145E-05
DAV:  17    -0.138633829272E+04   -0.10070E-07   -0.21509E-10  2976   0.301E-05    0.133E-05
DAV:  18    -0.138633829273E+04   -0.22701E-08    0.37717E-10  2880   0.223E-05
  32 F= -.14058189E+04 E0= -.14058189E+04  d E =0.101803E-02  mag=     0.0000
       N       E                     dE             d eps       ncg     rms          rms(c)
DAV:   1    -0.138634016013E+04   -0.18674E-02   -0.79153E-02  4576   0.183E-01    0.114E-01
DAV:   2    -0.138634006277E+04    0.97366E-04   -0.10028E-03  4672   0.223E-02    0.659E-02
DAV:   3    -0.138634003434E+04    0.28426E-04   -0.54654E-04  4960   0.160E-02    0.230E-02
DAV:   4    -0.138634002398E+04    0.10356E-04   -0.50360E-05  4608   0.500E-03    0.147E-02
DAV:   5    -0.138634002259E+04    0.13964E-05   -0.17933E-05  5008   0.291E-03    0.306E-03
DAV:   6    -0.138634002270E+04   -0.11644E-06   -0.19806E-06  4736   0.107E-03    0.102E-03
DAV:   7    -0.138634002307E+04   -0.36947E-06   -0.25037E-07  4704   0.406E-04    0.893E-04
DAV:   8    -0.138634002350E+04   -0.43109E-06   -0.66384E-08  4224   0.262E-04    0.278E-04
DAV:   9    -0.138634002383E+04   -0.32262E-06   -0.37417E-08  4288   0.188E-04    0.253E-04
DAV:  10    -0.138634002413E+04   -0.30515E-06   -0.14877E-08  3872   0.123E-04    0.116E-04
DAV:  11    -0.138634002433E+04   -0.19580E-06   -0.70896E-09  3456   0.939E-05    0.716E-05
DAV:  12    -0.138634002452E+04   -0.19110E-06   -0.99457E-09  3744   0.103E-04    0.470E-05
DAV:  13    -0.138634002459E+04   -0.75364E-07   -0.33191E-09  3040   0.893E-05    0.365E-05
DAV:  14    -0.138634002465E+04   -0.60187E-07   -0.26073E-09  3040   0.707E-05    0.224E-05
DAV:  15    -0.138634002470E+04   -0.47279E-07   -0.18695E-09  3008   0.546E-05    0.199E-05
DAV:  16    -0.138634002472E+04   -0.19805E-07   -0.63301E-10  2944   0.404E-05    0.150E-05
DAV:  17    -0.138634002474E+04   -0.16691E-07   -0.87834E-11  2944   0.332E-05    0.128E-05
DAV:  18    -0.138634002474E+04   -0.44238E-08    0.23976E-10  2944   0.202E-05
  33 F= -.14058206E+04 E0= -.14058206E+04  d E =-.171778E-02  mag=     0.0000
       N       E                     dE             d eps       ncg     rms          rms(c)
DAV:   1    -0.138633995091E+04    0.73824E-04   -0.72482E-02  4576   0.176E-01    0.775E-02
DAV:   2    -0.138633997219E+04   -0.21271E-04   -0.46476E-04  4800   0.131E-02    0.468E-02
DAV:   3    -0.138633997314E+04   -0.95389E-06   -0.64136E-05  4800   0.548E-03    0.507E-03
DAV:   4    -0.138633997321E+04   -0.69107E-07   -0.44404E-06  4576   0.150E-03    0.289E-03
DAV:   5    -0.138633997351E+04   -0.30363E-06   -0.17277E-06  4352   0.957E-04    0.100E-03
DAV:   6    -0.138633997382E+04   -0.30402E-06   -0.22545E-07  4096   0.343E-04    0.573E-04
DAV:   7    -0.138633997430E+04   -0.48602E-06   -0.62939E-08  4032   0.197E-04    0.258E-04
DAV:   8    -0.138633997475E+04   -0.45096E-06   -0.23476E-08  4064   0.128E-04    0.170E-04
DAV:   9    -0.138633997528E+04   -0.52982E-06   -0.23166E-08  4000   0.125E-04    0.831E-05
DAV:  10    -0.138633997560E+04   -0.31847E-06   -0.13207E-08  3872   0.116E-04    0.564E-05
DAV:  11    -0.138633997580E+04   -0.19574E-06   -0.82347E-09  3488   0.136E-04    0.402E-05
DAV:  12    -0.138633997593E+04   -0.13525E-06   -0.83337E-09  3520   0.142E-04    0.255E-05
DAV:  13    -0.138633997600E+04   -0.68627E-07   -0.35197E-09  3168   0.928E-05    0.162E-05
DAV:  14    -0.138633997603E+04   -0.27037E-07   -0.86102E-10  2944   0.488E-05    0.118E-05
DAV:  15    -0.138633997604E+04   -0.16313E-07   -0.24334E-10  2944   0.380E-05    0.749E-06
DAV:  16    -0.138633997605E+04   -0.52387E-08    0.22960E-10  2944   0.269E-05
  34 F= -.14058204E+04 E0= -.14058204E+04  d E =0.233351E-03  mag=    -0.0000
       N       E                     dE             d eps       ncg     rms          rms(c)
DAV:   1    -0.138633961151E+04    0.36454E-03   -0.72010E-02  4560   0.200E-01    0.753E-02
DAV:   2    -0.138633960941E+04    0.20924E-05   -0.41916E-04  4736   0.150E-02    0.444E-02
DAV:   3    -0.138633961037E+04   -0.95957E-06   -0.15202E-04  5184   0.857E-03    0.101E-02
DAV:   4    -0.138633960920E+04    0.11683E-05   -0.10523E-05  4640   0.254E-03    0.692E-03
DAV:   5    -0.138633961001E+04   -0.80949E-06   -0.73214E-06  4560   0.185E-03    0.156E-03
DAV:   6    -0.138633961073E+04   -0.72103E-06   -0.50966E-07  4224   0.573E-04    0.992E-04
DAV:   7    -0.138633961192E+04   -0.11836E-05   -0.14191E-07  4192   0.279E-04    0.503E-04
DAV:   8    -0.138633961315E+04   -0.12299E-05   -0.84640E-08  4192   0.195E-04    0.241E-04
DAV:   9    -0.138633961419E+04   -0.10452E-05   -0.39495E-08  4192   0.134E-04    0.163E-04
DAV:  10    -0.138633961525E+04   -0.10545E-05   -0.53432E-08  4320   0.148E-04    0.984E-05
DAV:  11    -0.138633961570E+04   -0.45088E-06   -0.14751E-08  4096   0.105E-04    0.666E-05
DAV:  12    -0.138633961613E+04   -0.43302E-06   -0.15950E-08  4064   0.131E-04    0.503E-05
DAV:  13    -0.138633961631E+04   -0.18126E-06   -0.67027E-09  3552   0.122E-04    0.382E-05
DAV:  14    -0.138633961640E+04   -0.85784E-07   -0.28118E-09  2944   0.946E-05    0.231E-05
DAV:  15    -0.138633961647E+04   -0.75117E-07   -0.23295E-09  3040   0.753E-05    0.241E-05
DAV:  16    -0.138633961650E+04   -0.25248E-07   -0.13511E-10  2944   0.382E-05    0.161E-05
DAV:  17    -0.138633961652E+04   -0.24826E-07    0.79899E-11  2944   0.323E-05    0.141E-05
DAV:  18    -0.138633961653E+04   -0.75233E-08    0.45056E-10  2912   0.202E-05
  35 F= -.14058203E+04 E0= -.14058203E+04  d E =0.112652E-03  mag=    -0.0000
       N       E                     dE             d eps       ncg     rms          rms(c)
DAV:   1    -0.138633978921E+04   -0.17268E-03   -0.75274E-02  4352   0.196E-01    0.940E-02
DAV:   2    -0.138633975990E+04    0.29303E-04   -0.65569E-04  4448   0.182E-02    0.557E-02
DAV:   3    -0.138633975205E+04    0.78558E-05   -0.29775E-04  5088   0.120E-02    0.164E-02
DAV:   4    -0.138633974658E+04    0.54675E-05   -0.25908E-05  4512   0.388E-03    0.108E-02
DAV:   5    -0.138633974571E+04    0.86936E-06   -0.13045E-05  4544   0.252E-03    0.218E-03
DAV:   6    -0.138633974614E+04   -0.42493E-06   -0.10334E-06  4976   0.816E-04    0.989E-04
DAV:   7    -0.138633974662E+04   -0.48618E-06   -0.16790E-07  4416   0.284E-04    0.805E-04
DAV:   8    -0.138633974736E+04   -0.73374E-06   -0.71110E-08  3968   0.210E-04    0.228E-04
DAV:   9    -0.138633974784E+04   -0.48388E-06   -0.25676E-08  4032   0.131E-04    0.246E-04
DAV:  10    -0.138633974843E+04   -0.58688E-06   -0.18467E-08  3936   0.110E-04    0.102E-04
DAV:  11    -0.138633974878E+04   -0.35558E-06   -0.96955E-09  3744   0.925E-05    0.742E-05
DAV:  12    -0.138633974907E+04   -0.28353E-06   -0.87289E-09  3680   0.877E-05    0.582E-05
DAV:  13    -0.138633974920E+04   -0.12966E-06   -0.31579E-09  3136   0.770E-05    0.472E-05
DAV:  14    -0.138633974931E+04   -0.11345E-06   -0.36207E-09  3072   0.726E-05    0.324E-05
DAV:  15    -0.138633974935E+04   -0.41618E-07   -0.13738E-09  2944   0.577E-05    0.310E-05
DAV:  16    -0.138633974937E+04   -0.19791E-07   -0.69652E-10  3008   0.466E-05    0.261E-05
DAV:  17    -0.138633974938E+04   -0.74797E-08   -0.50588E-11  2944   0.366E-05
  36 F= -.14058204E+04 E0= -.14058204E+04  d E =-.654212E-04  mag=     0.0000
       N       E                     dE             d eps       ncg     rms          rms(c)
DAV:   1    -0.138633914784E+04    0.60153E-03   -0.84010E-02  4384   0.203E-01    0.135E-01
DAV:   2    -0.138633898090E+04    0.16694E-03   -0.17460E-03  4672   0.315E-02    0.770E-02
DAV:   3    -0.138633892953E+04    0.51364E-04   -0.87459E-04  4672   0.203E-02    0.289E-02
DAV:   4    -0.138633891435E+04    0.15182E-04   -0.76462E-05  4704   0.621E-03    0.187E-02
DAV:   5    -0.138633891202E+04    0.23294E-05   -0.25954E-05  5248   0.359E-03    0.379E-03
DAV:   6    -0.138633891191E+04    0.11090E-06   -0.31987E-06  4768   0.134E-03    0.106E-03
DAV:   7    -0.138633891213E+04   -0.21789E-06   -0.35879E-07  4352   0.460E-04    0.938E-04
DAV:   8    -0.138633891234E+04   -0.21416E-06   -0.52048E-08  3968   0.213E-04    0.387E-04
DAV:   9    -0.138633891261E+04   -0.26134E-06   -0.32983E-08  4000   0.146E-04    0.190E-04
DAV:  10    -0.138633891283E+04   -0.22244E-06   -0.68647E-09  3424   0.936E-05    0.118E-04
DAV:  11    -0.138633891305E+04   -0.22445E-06   -0.97855E-09  3840   0.843E-05    0.671E-05
DAV:  12    -0.138633891321E+04   -0.15616E-06   -0.41123E-09  3200   0.779E-05    0.435E-05
DAV:  13    -0.138633891337E+04   -0.15741E-06   -0.79174E-09  3680   0.887E-05    0.425E-05
DAV:  14    -0.138633891342E+04   -0.52023E-07   -0.15679E-09  2944   0.661E-05    0.315E-05
DAV:  15    -0.138633891350E+04   -0.79119E-07   -0.28741E-09  3008   0.638E-05    0.371E-05
DAV:  16    -0.138633891351E+04   -0.14028E-07   -0.39430E-10  2944   0.457E-05    0.255E-05
DAV:  17    -0.138633891352E+04   -0.10943E-07    0.97013E-11  2816   0.288E-05    0.134E-05
DAV:  18    -0.138633891354E+04   -0.15760E-07    0.30346E-10  2880   0.229E-05    0.130E-05
DAV:  19    -0.138633891354E+04   -0.71741E-08    0.54078E-10  2880   0.153E-05
  37 F= -.14058195E+04 E0= -.14058195E+04  d E =0.836426E-03  mag=    -0.0000
       N       E                     dE             d eps       ncg     rms          rms(c)
DAV:   1    -0.138633959894E+04   -0.68540E-03   -0.79150E-02  4608   0.214E-01    0.112E-01
DAV:   2    -0.138633954906E+04    0.49884E-04   -0.13712E-03  4928   0.282E-02    0.672E-02
DAV:   3    -0.138633952100E+04    0.28059E-04   -0.62748E-04  5376   0.179E-02    0.242E-02
DAV:   4    -0.138633951004E+04    0.10955E-04   -0.64736E-05  5312   0.566E-03    0.158E-02
DAV:   5    -0.138633950775E+04    0.22955E-05   -0.24872E-05  5056   0.353E-03    0.307E-03
DAV:   6    -0.138633950787E+04   -0.12117E-06   -0.19074E-06  5312   0.114E-03    0.117E-03
DAV:   7    -0.138633950801E+04   -0.14099E-06   -0.29804E-07  5056   0.481E-04    0.807E-04
DAV:   8    -0.138633950824E+04   -0.23095E-06   -0.53872E-08  4096   0.259E-04    0.327E-04
DAV:   9    -0.138633950849E+04   -0.24610E-06   -0.28945E-08  3968   0.169E-04    0.206E-04
DAV:  10    -0.138633950877E+04   -0.28098E-06   -0.11085E-08  3600   0.131E-04    0.142E-04
DAV:  11    -0.138633950902E+04   -0.25483E-06   -0.14565E-08  3936   0.123E-04    0.811E-05
DAV:  12    -0.138633950921E+04   -0.18462E-06   -0.90561E-09  3520   0.104E-04    0.622E-05
DAV:  13    -0.138633950933E+04   -0.12903E-06   -0.66772E-09  3200   0.898E-05    0.448E-05
DAV:  14    -0.138633950941E+04   -0.71610E-07   -0.44383E-09  3104   0.903E-05    0.242E-05
DAV:  15    -0.138633950944E+04   -0.33804E-07   -0.27797E-09  3040   0.727E-05    0.193E-05
DAV:  16    -0.138633950945E+04   -0.12544E-07   -0.56827E-10  2912   0.382E-05    0.160E-05
DAV:  17    -0.138633950946E+04   -0.12049E-07   -0.16138E-10  2976   0.315E-05    0.965E-06
DAV:  18    -0.138633950947E+04   -0.52678E-08    0.26249E-10  2912   0.229E-05
  38 F= -.14058201E+04 E0= -.14058201E+04  d E =-.577658E-03  mag=    -0.0000
       N       E                     dE             d eps       ncg     rms          rms(c)
DAV:   1    -0.138633969329E+04   -0.18382E-03   -0.81402E-02  4608   0.211E-01    0.123E-01
DAV:   2    -0.138633956684E+04    0.12645E-03   -0.12439E-03  4960   0.277E-02    0.697E-02
DAV:   3    -0.138633952779E+04    0.39054E-04   -0.61723E-04  5248   0.173E-02    0.243E-02
DAV:   4    -0.138633951648E+04    0.11305E-04   -0.57591E-05  5152   0.557E-03    0.158E-02
DAV:   5    -0.138633951447E+04    0.20144E-05   -0.19214E-05  5536   0.339E-03    0.356E-03
DAV:   6    -0.138633951453E+04   -0.59154E-07   -0.28222E-06  5216   0.137E-03    0.118E-03
DAV:   7    -0.138633951486E+04   -0.32842E-06   -0.28676E-07  5504   0.507E-04    0.964E-04
DAV:   8    -0.138633951529E+04   -0.43843E-06   -0.62548E-08  4320   0.276E-04    0.396E-04
DAV:   9    -0.138633951577E+04   -0.47739E-06   -0.46302E-08  4064   0.194E-04    0.268E-04
DAV:  10    -0.138633951625E+04   -0.47390E-06   -0.21312E-08  3904   0.151E-04    0.171E-04
DAV:  11    -0.138633951667E+04   -0.42317E-06   -0.19375E-08  3776   0.125E-04    0.882E-05
DAV:  12    -0.138633951701E+04   -0.33822E-06   -0.17952E-08  3744   0.109E-04    0.757E-05
DAV:  13    -0.138633951719E+04   -0.18392E-06   -0.70265E-09  3264   0.802E-05    0.429E-05
DAV:  14    -0.138633951732E+04   -0.13366E-06   -0.46120E-09  3136   0.719E-05    0.277E-05
DAV:  15    -0.138633951740E+04   -0.71159E-07   -0.23977E-09  3072   0.593E-05    0.217E-05
DAV:  16    -0.138633951744E+04   -0.49302E-07   -0.10721E-09  2944   0.407E-05    0.122E-05
DAV:  17    -0.138633951747E+04   -0.25495E-07   -0.19518E-10  2880   0.322E-05    0.114E-05
DAV:  18    -0.138633951748E+04   -0.12602E-07    0.30354E-10  2880   0.237E-05    0.829E-06
DAV:  19    -0.138633951749E+04   -0.84547E-08    0.47661E-10  2880   0.178E-05
  39 F= -.14058201E+04 E0= -.14058201E+04  d E =-.399700E-04  mag=    -0.0000
       N       E                     dE             d eps       ncg     rms          rms(c)
DAV:   1    -0.138633935842E+04    0.15906E-03   -0.72382E-02  4608   0.204E-01    0.760E-02
DAV:   2    -0.138633938047E+04   -0.22049E-04   -0.47181E-04  4928   0.147E-02    0.459E-02
DAV:   3    -0.138633938137E+04   -0.89520E-06   -0.63234E-05  5472   0.580E-03    0.466E-03
DAV:   4    -0.138633938134E+04    0.24433E-07   -0.41379E-06  5504   0.163E-03    0.265E-03
DAV:   5    -0.138633938136E+04   -0.17171E-07   -0.11106E-06  4896   0.879E-04    0.960E-04
DAV:   6    -0.138633938150E+04   -0.14291E-06   -0.13802E-07  4640   0.395E-04    0.504E-04
DAV:   7    -0.138633938166E+04   -0.15693E-06   -0.31520E-08  3904   0.169E-04    0.240E-04
DAV:   8    -0.138633938186E+04   -0.20007E-06   -0.13425E-08  3552   0.947E-05    0.149E-04
DAV:   9    -0.138633938208E+04   -0.22243E-06   -0.11262E-08  3552   0.102E-04    0.850E-05
DAV:  10    -0.138633938225E+04   -0.17091E-06   -0.87917E-09  3296   0.804E-05    0.784E-05
DAV:  11    -0.138633938235E+04   -0.10010E-06   -0.47781E-09  3136   0.977E-05    0.387E-05
DAV:  12    -0.138633938242E+04   -0.67856E-07   -0.51576E-09  3104   0.895E-05    0.555E-05
DAV:  13    -0.138633938244E+04   -0.21755E-07   -0.11715E-09  3008   0.565E-05    0.341E-05
DAV:  14    -0.138633938247E+04   -0.30763E-07   -0.26938E-09  3008   0.697E-05    0.615E-05
DAV:  15    -0.138633938248E+04   -0.53842E-08   -0.48383E-10  2880   0.502E-05
  40 F= -.14058199E+04 E0= -.14058199E+04  d E =0.237252E-03  mag=    -0.0000
       N       E                     dE             d eps       ncg     rms          rms(c)
DAV:   1    -0.138633975380E+04   -0.37133E-03   -0.75636E-02  4928   0.208E-01    0.931E-02
DAV:   2    -0.138633975947E+04   -0.56693E-05   -0.91898E-04  4992   0.215E-02    0.568E-02
DAV:   3    -0.138633974575E+04    0.13720E-04   -0.32166E-04  5184   0.129E-02    0.170E-02
DAV:   4    -0.138633974038E+04    0.53749E-05   -0.36943E-05  4928   0.435E-03    0.112E-02
DAV:   5    -0.138633973912E+04    0.12572E-05   -0.12368E-05  5088   0.249E-03    0.260E-03
DAV:   6    -0.138633973914E+04   -0.22002E-07   -0.10836E-06  4992   0.796E-04    0.953E-04
DAV:   7    -0.138633973918E+04   -0.44383E-07   -0.21778E-07  4768   0.391E-04    0.623E-04
DAV:   8    -0.138633973930E+04   -0.11848E-06   -0.47778E-08  4000   0.175E-04    0.291E-04
DAV:   9    -0.138633973944E+04   -0.13730E-06   -0.19568E-08  3936   0.114E-04    0.162E-04
DAV:  10    -0.138633973959E+04   -0.14830E-06   -0.71826E-09  3232   0.808E-05    0.126E-04
DAV:  11    -0.138633973974E+04   -0.15076E-06   -0.96828E-09  3488   0.854E-05    0.718E-05
DAV:  12    -0.138633973986E+04   -0.12413E-06   -0.10056E-08  3520   0.122E-04    0.462E-05
DAV:  13    -0.138633973993E+04   -0.61758E-07   -0.59680E-09  3232   0.108E-04    0.404E-05
DAV:  14    -0.138633973996E+04   -0.32102E-07   -0.19570E-09  3008   0.635E-05    0.222E-05
DAV:  15    -0.138633974000E+04   -0.44121E-07   -0.24333E-09  3040   0.533E-05    0.277E-05
DAV:  16    -0.138633974001E+04   -0.10492E-07   -0.33718E-10  2944   0.349E-05    0.170E-05
DAV:  17    -0.138633974002E+04   -0.79890E-08    0.41066E-11  2880   0.247E-05
  41 F= -.14058204E+04 E0= -.14058204E+04  d E =-.523917E-03  mag=    -0.0000
       N       E                     dE             d eps       ncg     rms          rms(c)
DAV:   1    -0.138633985709E+04   -0.11708E-03   -0.75277E-02  4960   0.176E-01    0.935E-02
DAV:   2    -0.138633983187E+04    0.25221E-04   -0.68056E-04  5312   0.174E-02    0.543E-02
DAV:   3    -0.138633981908E+04    0.12795E-04   -0.22728E-04  5472   0.102E-02    0.142E-02
DAV:   4    -0.138633981562E+04    0.34544E-05   -0.20780E-05  4832   0.334E-03    0.851E-03
DAV:   5    -0.138633981518E+04    0.44591E-06   -0.86801E-06  4928   0.209E-03    0.165E-03
DAV:   6    -0.138633981521E+04   -0.33120E-07   -0.57603E-07  4832   0.710E-04    0.837E-04
DAV:   7    -0.138633981529E+04   -0.85231E-07   -0.80537E-08  4448   0.232E-04    0.377E-04
DAV:   8    -0.138633981539E+04   -0.10039E-06   -0.17665E-08  3744   0.160E-04    0.174E-04
DAV:   9    -0.138633981548E+04   -0.84139E-07   -0.61062E-09  3424   0.110E-04    0.103E-04
DAV:  10    -0.138633981559E+04   -0.11380E-06   -0.73354E-09  3392   0.117E-04    0.875E-05
DAV:  11    -0.138633981564E+04   -0.50350E-07   -0.24160E-09  3008   0.761E-05    0.700E-05
DAV:  12    -0.138633981571E+04   -0.65033E-07   -0.39794E-09  3104   0.906E-05    0.567E-05
DAV:  13    -0.138633981574E+04   -0.32451E-07   -0.17842E-09  2944   0.678E-05    0.400E-05
DAV:  14    -0.138633981577E+04   -0.26150E-07   -0.20442E-09  3008   0.662E-05    0.313E-05
DAV:  15    -0.138633981578E+04   -0.17448E-07   -0.93207E-10  2944   0.517E-05    0.277E-05
DAV:  16    -0.138633981579E+04   -0.79017E-08   -0.15230E-10  2880   0.334E-05
  42 F= -.14058204E+04 E0= -.14058204E+04  d E =0.166850E-04  mag=    -0.0000
       N       E                     dE             d eps       ncg     rms          rms(c)
DAV:   1    -0.138633918004E+04    0.63574E-03   -0.85351E-02  5024   0.184E-01    0.140E-01
DAV:   2    -0.138633898590E+04    0.19414E-03   -0.16969E-03  5312   0.284E-02    0.779E-02
DAV:   3    -0.138633892807E+04    0.57834E-04   -0.79378E-04  5280   0.187E-02    0.276E-02
DAV:   4    -0.138633891510E+04    0.12967E-04   -0.75260E-05  5088   0.590E-03    0.179E-02
DAV:   5    -0.138633891323E+04    0.18709E-05   -0.18532E-05  5264   0.306E-03    0.415E-03
DAV:   6    -0.138633891279E+04    0.44110E-06   -0.28786E-06  4928   0.132E-03    0.115E-03
DAV:   7    -0.138633891275E+04    0.39843E-07   -0.35541E-07  4864   0.467E-04    0.937E-04
DAV:   8    -0.138633891277E+04   -0.23676E-07   -0.65510E-08  4224   0.332E-04    0.385E-04
DAV:   9    -0.138633891284E+04   -0.64087E-07   -0.34606E-08  4192   0.242E-04    0.226E-04
DAV:  10    -0.138633891298E+04   -0.14006E-06   -0.13347E-08  3744   0.160E-04    0.145E-04
DAV:  11    -0.138633891308E+04   -0.10058E-06   -0.46991E-09  3136   0.115E-04    0.103E-04
DAV:  12    -0.138633891324E+04   -0.16046E-06   -0.13003E-08  3808   0.157E-04    0.804E-05
DAV:  13    -0.138633891332E+04   -0.77751E-07   -0.50349E-09  3328   0.988E-05    0.692E-05
DAV:  14    -0.138633891336E+04   -0.45853E-07   -0.20382E-09  2944   0.664E-05    0.332E-05
DAV:  15    -0.138633891342E+04   -0.58426E-07   -0.24573E-09  3008   0.561E-05    0.288E-05
DAV:  16    -0.138633891345E+04   -0.31068E-07   -0.11933E-09  2928   0.486E-05    0.212E-05
DAV:  17    -0.138633891347E+04   -0.22905E-07   -0.78026E-10  2912   0.468E-05    0.166E-05
DAV:  18    -0.138633891349E+04   -0.11525E-07   -0.25203E-10  2912   0.316E-05    0.246E-05
DAV:  19    -0.138633891349E+04   -0.41036E-08    0.28698E-10  2752   0.200E-05
[...]
DAV:   4    -0.138633750932E+04   -0.16446E-05   -0.66075E-05  5760   0.515E-03    0.111E-02
DAV:   5    -0.138633750813E+04    0.11850E-05   -0.16587E-05  5120   0.290E-03    0.363E-03
DAV:   6    -0.138633750889E+04   -0.75912E-06   -0.13880E-06  4640   0.912E-04    0.180E-03
DAV:   7    -0.138633751004E+04   -0.11454E-05   -0.39853E-07  4320   0.557E-04    0.550E-04
DAV:   8    -0.138633751087E+04   -0.83339E-06   -0.10048E-07  4864   0.297E-04    0.375E-04
DAV:   9    -0.138633751202E+04   -0.11512E-05   -0.46799E-08  4032   0.203E-04    0.194E-04
DAV:  10    -0.138633751290E+04   -0.87873E-06   -0.31197E-08  4064   0.160E-04    0.150E-04
DAV:  11    -0.138633751361E+04   -0.70749E-06   -0.24227E-08  3936   0.137E-04    0.851E-05
DAV:  12    -0.138633751403E+04   -0.42589E-06   -0.13021E-08  3680   0.119E-04    0.635E-05
DAV:  13    -0.138633751427E+04   -0.23603E-06   -0.60569E-09  3360   0.900E-05    0.402E-05
DAV:  14    -0.138633751444E+04   -0.16732E-06   -0.45080E-09  3200   0.709E-05    0.221E-05
DAV:  15    -0.138633751452E+04   -0.85274E-07   -0.24899E-09  3072   0.674E-05    0.159E-05
DAV:  16    -0.138633751455E+04   -0.28478E-07   -0.10239E-09  2944   0.583E-05    0.127E-05
DAV:  17    -0.138633751457E+04   -0.18321E-07   -0.26646E-10  2976   0.365E-05    0.669E-06
DAV:  18    -0.138633751457E+04   -0.49768E-08    0.32483E-10  2912   0.213E-05
  66 F= -.14058182E+04 E0= -.14058182E+04  d E =0.630176E-04  mag=     0.0000
       N       E                     dE             d eps       ncg     rms          rms(c)
DAV:   1    -0.138633773509E+04   -0.22053E-03   -0.48890E-01  4704   0.531E-01    0.137E-01
DAV:   2    -0.138633782166E+04   -0.86564E-04   -0.36332E-03  5312   0.433E-02    0.854E-02
DAV:   3    -0.138633772292E+04    0.98736E-04   -0.52108E-04  5504   0.165E-02    0.224E-02
DAV:   4    -0.138633772662E+04   -0.36935E-05   -0.52420E-05  5984   0.467E-03    0.955E-03
DAV:   5    -0.138633772566E+04    0.95302E-06   -0.12833E-05  5376   0.275E-03    0.327E-03
DAV:   6    -0.138633772585E+04   -0.18341E-06   -0.13895E-06  4768   0.101E-03    0.160E-03
DAV:   7    -0.138633772600E+04   -0.15709E-06   -0.33718E-07  4416   0.569E-04    0.453E-04
DAV:   8    -0.138633772615E+04   -0.14978E-06   -0.86862E-08  4832   0.292E-04    0.307E-04
DAV:   9    -0.138633772632E+04   -0.16864E-06   -0.14396E-08  3696   0.175E-04    0.172E-04
DAV:  10    -0.138633772650E+04   -0.17766E-06   -0.11534E-08  3648   0.170E-04    0.990E-05
DAV:  11    -0.138633772661E+04   -0.11033E-06   -0.65808E-09  3424   0.111E-04    0.706E-05
DAV:  12    -0.138633772671E+04   -0.99491E-07   -0.28941E-09  3072   0.791E-05    0.452E-05
DAV:  13    -0.138633772682E+04   -0.11033E-06   -0.47289E-09  3232   0.745E-05    0.330E-05
DAV:  14    -0.138633772686E+04   -0.43801E-07   -0.15075E-09  3008   0.509E-05    0.225E-05
DAV:  15    -0.138633772690E+04   -0.37180E-07   -0.85381E-10  2880   0.384E-05    0.147E-05
DAV:  16    -0.138633772692E+04   -0.20271E-07   -0.45150E-10  2944   0.339E-05    0.124E-05
DAV:  17    -0.138633772693E+04   -0.76252E-08    0.15222E-10  2912   0.285E-05
  67 F= -.14058180E+04 E0= -.14058180E+04  d E =0.177256E-03  mag=     0.0000
       N       E                     dE             d eps       ncg     rms          rms(c)
DAV:   1    -0.138633771461E+04    0.12310E-04   -0.48796E-01  4992   0.563E-01    0.136E-01
DAV:   2    -0.138633794969E+04   -0.23507E-03   -0.50320E-03  5344   0.518E-02    0.891E-02
DAV:   3    -0.138633783585E+04    0.11384E-03   -0.53919E-04  5536   0.167E-02    0.328E-02
DAV:   4    -0.138633783716E+04   -0.13128E-05   -0.12716E-04  5696   0.724E-03    0.108E-02
DAV:   5    -0.138633783588E+04    0.12841E-05   -0.14552E-05  5408   0.260E-03    0.516E-03
DAV:   6    -0.138633783653E+04   -0.65536E-06   -0.21709E-06  5696   0.118E-03    0.195E-03
DAV:   7    -0.138633783754E+04   -0.10084E-05   -0.51185E-07  4736   0.636E-04    0.721E-04
DAV:   8    -0.138633783861E+04   -0.10650E-05   -0.15464E-07  4704   0.289E-04    0.431E-04
DAV:   9    -0.138633783950E+04   -0.89365E-06   -0.35915E-08  4032   0.154E-04    0.255E-04
DAV:  10    -0.138633784066E+04   -0.11645E-05   -0.50756E-08  4224   0.156E-04    0.160E-04
DAV:  11    -0.138633784163E+04   -0.96193E-06   -0.47472E-08  4256   0.145E-04    0.122E-04
DAV:  12    -0.138633784219E+04   -0.56728E-06   -0.21612E-08  3968   0.103E-04    0.850E-05
DAV:  13    -0.138633784264E+04   -0.44606E-06   -0.17497E-08  3776   0.877E-05    0.506E-05
DAV:  14    -0.138633784288E+04   -0.23945E-06   -0.82885E-09  3328   0.713E-05    0.362E-05
DAV:  15    -0.138633784299E+04   -0.11195E-06   -0.26610E-09  3072   0.569E-05    0.238E-05
DAV:  16    -0.138633784308E+04   -0.89960E-07   -0.23018E-09  3072   0.558E-05    0.146E-05
DAV:  17    -0.138633784311E+04   -0.32393E-07   -0.68185E-10  2944   0.495E-05    0.115E-05
DAV:  18    -0.138633784313E+04   -0.19238E-07   -0.11022E-10  2944   0.335E-05    0.856E-06
DAV:  19    -0.138633784314E+04   -0.11118E-07    0.37524E-10  2944   0.198E-05    0.529E-06
DAV:  20    -0.138633784315E+04   -0.51659E-08    0.52140E-10  2880   0.140E-05
  68 F= -.14058184E+04 E0= -.14058184E+04  d E =-.398038E-03  mag=     0.0000
       N       E                     dE             d eps       ncg     rms          rms(c)
DAV:   1    -0.138633757523E+04    0.26791E-03   -0.48542E-01  4992   0.558E-01    0.136E-01
DAV:   2    -0.138633770552E+04   -0.13028E-03   -0.40536E-03  5312   0.473E-02    0.856E-02
DAV:   3    -0.138633760610E+04    0.99420E-04   -0.61245E-04  5600   0.185E-02    0.245E-02
DAV:   4    -0.138633760523E+04    0.86840E-06   -0.74473E-05  5936   0.620E-03    0.107E-02
DAV:   5    -0.138633760439E+04    0.84122E-06   -0.12675E-05  5504   0.245E-03    0.413E-03
DAV:   6    -0.138633760504E+04   -0.65594E-06   -0.14106E-06  5312   0.116E-03    0.183E-03
DAV:   7    -0.138633760604E+04   -0.99903E-06   -0.44510E-07  5184   0.677E-04    0.709E-04
DAV:   8    -0.138633760683E+04   -0.79020E-06   -0.11113E-07  4832   0.292E-04    0.478E-04
DAV:   9    -0.138633760764E+04   -0.80881E-06   -0.34506E-08  4128   0.169E-04    0.261E-04
DAV:  10    -0.138633760855E+04   -0.90711E-06   -0.30526E-08  3984   0.149E-04    0.179E-04
DAV:  11    -0.138633760943E+04   -0.88506E-06   -0.37053E-08  4128   0.141E-04    0.125E-04
DAV:  12    -0.138633761004E+04   -0.60150E-06   -0.23678E-08  3936   0.916E-05    0.791E-05
DAV:  13    -0.138633761047E+04   -0.43600E-06   -0.15162E-08  3680   0.663E-05    0.520E-05
DAV:  14    -0.138633761068E+04   -0.20892E-06   -0.49207E-09  3072   0.603E-05    0.291E-05
DAV:  15    -0.138633761080E+04   -0.12397E-06   -0.34472E-09  3136   0.620E-05    0.264E-05
DAV:  16    -0.138633761086E+04   -0.51063E-07   -0.12243E-09  3008   0.587E-05    0.191E-05
DAV:  17    -0.138633761089E+04   -0.34575E-07   -0.93310E-10  2976   0.505E-05    0.138E-05
DAV:  18    -0.138633761090E+04   -0.77125E-08    0.41281E-11  2944   0.322E-05
  69 F= -.14058183E+04 E0= -.14058183E+04  d E =0.123775E-03  mag=     0.0000
       N       E                     dE             d eps       ncg     rms          rms(c)
DAV:   1    -0.138633784583E+04   -0.23494E-03   -0.48791E-01  4992   0.566E-01    0.136E-01
DAV:   2    -0.138633791929E+04   -0.73462E-04   -0.35282E-03  5312   0.457E-02    0.837E-02
DAV:   3    -0.138633782595E+04    0.93340E-04   -0.53666E-04  5504   0.174E-02    0.224E-02
DAV:   4    -0.138633782870E+04   -0.27497E-05   -0.52833E-05  5696   0.494E-03    0.972E-03
DAV:   5    -0.138633782802E+04    0.68841E-06   -0.10454E-05  5312   0.234E-03    0.336E-03
DAV:   6    -0.138633782820E+04   -0.18369E-06   -0.11452E-06  4928   0.961E-04    0.148E-03
DAV:   7    -0.138633782842E+04   -0.22125E-06   -0.32092E-07  5088   0.564E-04    0.483E-04
DAV:   8    -0.138633782859E+04   -0.16709E-06   -0.55905E-08  4544   0.242E-04    0.311E-04
DAV:   9    -0.138633782880E+04   -0.21030E-06   -0.13635E-08  3680   0.149E-04    0.155E-04
DAV:  10    -0.138633782898E+04   -0.18172E-06   -0.88988E-09  3456   0.139E-04    0.920E-05
DAV:  11    -0.138633782916E+04   -0.17959E-06   -0.10009E-08  3552   0.139E-04    0.583E-05
DAV:  12    -0.138633782926E+04   -0.10538E-06   -0.52924E-09  3072   0.108E-04    0.462E-05
DAV:  13    -0.138633782936E+04   -0.10023E-06   -0.62744E-09  3232   0.105E-04    0.275E-05
DAV:  14    -0.138633782941E+04   -0.44194E-07   -0.32267E-09  3072   0.890E-05    0.228E-05
DAV:  15    -0.138633782944E+04   -0.29846E-07   -0.12507E-09  3008   0.522E-05    0.132E-05
DAV:  16    -0.138633782946E+04   -0.22177E-07   -0.61889E-10  3008   0.372E-05    0.147E-05
DAV:  17    -0.138633782947E+04   -0.59372E-08    0.20381E-10  2944   0.255E-05
  70 F= -.14058182E+04 E0= -.14058182E+04  d E =0.126095E-03  mag=     0.0000
       N       E                     dE             d eps       ncg     rms          rms(c)
DAV:   1    -0.138633827093E+04   -0.44146E-03   -0.49788E-01  5056   0.567E-01    0.130E-01
DAV:   2    -0.138633847374E+04   -0.20281E-03   -0.50250E-03  5376   0.494E-02    0.857E-02
DAV:   3    -0.138633835853E+04    0.11521E-03   -0.63197E-04  5472   0.185E-02    0.282E-02
DAV:   4    -0.138633836344E+04   -0.49074E-05   -0.88970E-05  5920   0.617E-03    0.114E-02
DAV:   5    -0.138633836214E+04    0.12988E-05   -0.16942E-05  5472   0.309E-03    0.396E-03
DAV:   6    -0.138633836231E+04   -0.16823E-06   -0.16531E-06  5216   0.110E-03    0.182E-03
DAV:   7    -0.138633836253E+04   -0.22750E-06   -0.38987E-07  4592   0.572E-04    0.711E-04
DAV:   8    -0.138633836279E+04   -0.25195E-06   -0.11670E-07  5408   0.323E-04    0.302E-04
DAV:   9    -0.138633836298E+04   -0.19155E-06   -0.15794E-08  3648   0.132E-04    0.195E-04
DAV:  10    -0.138633836330E+04   -0.32522E-06   -0.18327E-08  3888   0.122E-04    0.116E-04
DAV:  11    -0.138633836346E+04   -0.16062E-06   -0.44498E-09  3072   0.898E-05    0.751E-05
DAV:  12    -0.138633836368E+04   -0.21982E-06   -0.11567E-08  3504   0.114E-04    0.695E-05
DAV:  13    -0.138633836377E+04   -0.84707E-07   -0.36276E-09  3072   0.962E-05    0.495E-05
DAV:  14    -0.138633836388E+04   -0.11123E-06   -0.54065E-09  3104   0.874E-05    0.592E-05
DAV:  15    -0.138633836392E+04   -0.40251E-07   -0.16742E-09  3008   0.666E-05    0.403E-05
DAV:  16    -0.138633836396E+04   -0.40367E-07   -0.19605E-09  3072   0.609E-05    0.341E-05
DAV:  17    -0.138633836398E+04   -0.19834E-07   -0.41677E-10  2944   0.452E-05    0.241E-05
DAV:  18    -0.138633836399E+04   -0.10492E-07   -0.30396E-11  2944   0.331E-05    0.955E-06
DAV:  19    -0.138633836400E+04   -0.57189E-08    0.42989E-10  2944   0.210E-05
  71 F= -.14058190E+04 E0= -.14058190E+04  d E =-.802500E-03  mag=    -0.0000
       N       E                     dE             d eps       ncg     rms          rms(c)
DAV:   1    -0.138633859674E+04   -0.23275E-03   -0.48372E-01  5056   0.478E-01    0.121E-01
DAV:   2    -0.138633874433E+04   -0.14759E-03   -0.42754E-03  5280   0.434E-02    0.703E-02
DAV:   3    -0.138633867174E+04    0.72589E-04   -0.53234E-04  5664   0.161E-02    0.256E-02
DAV:   4    -0.138633867045E+04    0.12931E-05   -0.61674E-05  5760   0.560E-03    0.123E-02
DAV:   5    -0.138633866895E+04    0.14919E-05   -0.80124E-06  6112   0.285E-03    0.401E-03
DAV:   6    -0.138633866919E+04   -0.23402E-06   -0.11979E-06  5440   0.110E-03    0.159E-03
DAV:   7    -0.138633866983E+04   -0.64581E-06   -0.25524E-07  5312   0.473E-04    0.669E-04
DAV:   8    -0.138633867056E+04   -0.73123E-06   -0.73622E-08  4800   0.319E-04    0.428E-04
DAV:   9    -0.138633867136E+04   -0.79410E-06   -0.32949E-08  3968   0.161E-04    0.263E-04
DAV:  10    -0.138633867250E+04   -0.11385E-05   -0.90047E-08  4288   0.216E-04    0.165E-04
DAV:  11    -0.138633867302E+04   -0.52468E-06   -0.26693E-08  4032   0.125E-04    0.115E-04
DAV:  12    -0.138633867343E+04   -0.40983E-06   -0.13839E-08  3424   0.844E-05    0.733E-05
DAV:  13    -0.138633867373E+04   -0.29830E-06   -0.12008E-08  3456   0.706E-05    0.512E-05
DAV:  14    -0.138633867390E+04   -0.17387E-06   -0.50657E-09  3136   0.678E-05    0.321E-05
DAV:  15    -0.138633867401E+04   -0.10846E-06   -0.32015E-09  3072   0.619E-05    0.263E-05
DAV:  16    -0.138633867408E+04   -0.66022E-07   -0.15214E-09  3072   0.489E-05    0.188E-05
DAV:  17    -0.138633867412E+04   -0.41677E-07   -0.79485E-10  2976   0.452E-05    0.168E-05
DAV:  18    -0.138633867413E+04   -0.14057E-07    0.24253E-11  2944   0.332E-05    0.162E-05
DAV:  19    -0.138633867414E+04   -0.83237E-08    0.35508E-10  2912   0.209E-05
  72 F= -.14058193E+04 E0= -.14058193E+04  d E =-.293256E-03  mag=     0.0000
       N       E                     dE             d eps       ncg     rms          rms(c)
DAV:   1    -0.138633830117E+04    0.37297E-03   -0.48852E-01  5056   0.536E-01    0.141E-01
DAV:   2    -0.138633836203E+04   -0.60864E-04   -0.48735E-03  5376   0.511E-02    0.846E-02
DAV:   3    -0.138633823179E+04    0.13024E-03   -0.82267E-04  5504   0.220E-02    0.247E-02
DAV:   4    -0.138633823331E+04   -0.15191E-05   -0.78304E-05  5920   0.711E-03    0.123E-02
DAV:   5    -0.138633823205E+04    0.12603E-05   -0.14216E-05  6112   0.421E-03    0.436E-03
DAV:   6    -0.138633823249E+04   -0.43835E-06   -0.14098E-06  5856   0.134E-03    0.205E-03
DAV:   7    -0.138633823343E+04   -0.93700E-06   -0.43639E-07  5536   0.714E-04    0.827E-04
DAV:   8    -0.138633823445E+04   -0.10220E-05   -0.16337E-07  5728   0.530E-04    0.542E-04
DAV:   9    -0.138633823529E+04   -0.84059E-06   -0.39083E-08  4352   0.201E-04    0.355E-04
DAV:  10    -0.138633823681E+04   -0.15224E-05   -0.10388E-07  4320   0.256E-04    0.218E-04
DAV:  11    -0.138633823750E+04   -0.68691E-06   -0.37015E-08  4352   0.162E-04    0.156E-04
DAV:  12    -0.138633823811E+04   -0.60513E-06   -0.21399E-08  3808   0.116E-04    0.916E-05
DAV:  13    -0.138633823855E+04   -0.44078E-06   -0.17047E-08  3712   0.885E-05    0.801E-05
DAV:  14    -0.138633823875E+04   -0.20818E-06   -0.46871E-09  3072   0.775E-05    0.476E-05
DAV:  15    -0.138633823892E+04   -0.16078E-06   -0.61975E-09  3200   0.811E-05    0.404E-05
DAV:  16    -0.138633823897E+04   -0.52445E-07   -0.18052E-09  3008   0.621E-05    0.317E-05
DAV:  17    -0.138633823902E+04   -0.52285E-07   -0.16654E-09  3008   0.563E-05    0.236E-05
DAV:  18    -0.138633823903E+04   -0.12515E-07   -0.28874E-10  2944   0.408E-05    0.232E-05
DAV:  19    -0.138633823904E+04   -0.86729E-08    0.25362E-10  2880   0.263E-05
  73 F= -.14058186E+04 E0= -.14058186E+04  d E =0.643769E-03  mag=     0.0000
       N       E                     dE             d eps       ncg     rms          rms(c)
DAV:   1    -0.138633787779E+04    0.36124E-03   -0.48732E-01  5056   0.555E-01    0.129E-01
DAV:   2    -0.138633805544E+04   -0.17766E-03   -0.46985E-03  5472   0.487E-02    0.896E-02
DAV:   3    -0.138633791360E+04    0.14185E-03   -0.64604E-04  5600   0.221E-02    0.280E-02
DAV:   4    -0.138633792172E+04   -0.81252E-05   -0.13501E-04  5824   0.812E-03    0.109E-02
DAV:   5    -0.138633792027E+04    0.14481E-05   -0.18178E-05  5632   0.414E-03    0.464E-03
DAV:   6    -0.138633792099E+04   -0.71179E-06   -0.18980E-06  5824   0.133E-03    0.204E-03
DAV:   7    -0.138633792180E+04   -0.81357E-06   -0.44626E-07  5024   0.687E-04    0.868E-04
DAV:   8    -0.138633792250E+04   -0.70228E-06   -0.12023E-07  5504   0.447E-04    0.384E-04
DAV:   9    -0.138633792314E+04   -0.63532E-06   -0.37793E-08  4224   0.245E-04    0.255E-04
DAV:  10    -0.138633792391E+04   -0.76812E-06   -0.30443E-08  4096   0.190E-04    0.149E-04
DAV:  11    -0.138633792454E+04   -0.63228E-06   -0.28303E-08  4096   0.169E-04    0.931E-05
DAV:  12    -0.138633792497E+04   -0.43095E-06   -0.15645E-08  3776   0.129E-04    0.625E-05
DAV:  13    -0.138633792521E+04   -0.23731E-06   -0.58049E-09  3328   0.871E-05    0.462E-05
DAV:  14    -0.138633792533E+04   -0.12842E-06   -0.32250E-09  3072   0.648E-05    0.315E-05
DAV:  15    -0.138633792543E+04   -0.91910E-07   -0.21441E-09  3008   0.550E-05    0.221E-05
DAV:  16    -0.138633792549E+04   -0.58862E-07   -0.16997E-09  3008   0.533E-05    0.209E-05
DAV:  17    -0.138633792550E+04   -0.15512E-07   -0.56239E-10  2944   0.468E-05    0.145E-05
DAV:  18    -0.138633792551E+04   -0.89785E-08   -0.84125E-11  2912   0.331E-05
  74 F= -.14058185E+04 E0= -.14058185E+04  d E =0.146048E-03  mag=    -0.0000
       N       E                     dE             d eps       ncg     rms          rms(c)
DAV:   1    -0.138633792986E+04   -0.43550E-05   -0.49519E-01  4992   0.544E-01    0.142E-01
DAV:   2    -0.138633790707E+04    0.22788E-04   -0.31489E-03  5408   0.425E-02    0.881E-02
DAV:   3    -0.138633778965E+04    0.11742E-03   -0.66478E-04  5408   0.196E-02    0.154E-02
DAV:   4    -0.138633779204E+04   -0.23931E-05   -0.48917E-05  5888   0.491E-03    0.815E-03
DAV:   5    -0.138633779156E+04    0.48577E-06   -0.63802E-06  5664   0.204E-03    0.331E-03
DAV:   6    -0.138633779223E+04   -0.67240E-06   -0.11074E-06  5152   0.104E-03    0.156E-03
DAV:   7    -0.138633779347E+04   -0.12398E-05   -0.38422E-07  5312   0.592E-04    0.691E-04
DAV:   8    -0.138633779466E+04   -0.11943E-05   -0.10150E-07  4928   0.362E-04    0.425E-04
DAV:   9    -0.138633779597E+04   -0.13049E-05   -0.43727E-08  4128   0.231E-04    0.255E-04
DAV:  10    -0.138633779762E+04   -0.16491E-05   -0.96664E-08  4368   0.299E-04    0.145E-04
DAV:  11    -0.138633779841E+04   -0.79321E-06   -0.38723E-08  4256   0.175E-04    0.109E-04
DAV:  12    -0.138633779894E+04   -0.52531E-06   -0.14156E-08  3520   0.943E-05    0.632E-05
DAV:  13    -0.138633779932E+04   -0.38648E-06   -0.14201E-08  3840   0.848E-05    0.466E-05
DAV:  14    -0.138633779945E+04   -0.12880E-06   -0.24148E-09  3072   0.652E-05    0.331E-05
DAV:  15    -0.138633779961E+04   -0.15632E-06   -0.45128E-09  3232   0.604E-05    0.263E-05
DAV:  16    -0.138633779964E+04   -0.37558E-07   -0.53029E-10  2944   0.446E-05    0.194E-05
DAV:  17    -0.138633779968E+04   -0.37631E-07   -0.74679E-10  3008   0.459E-05    0.142E-05
DAV:  18    -0.138633779969E+04   -0.11220E-07    0.33216E-12  2944   0.363E-05    0.176E-05
DAV:  19    -0.138633779970E+04   -0.35507E-08    0.42351E-10  2816   0.181E-05
  75 F= -.14058185E+04 E0= -.14058185E+04  d E =0.248037E-04  mag=     0.0000
       N       E                     dE             d eps       ncg     rms          rms(c)
DAV:   1    -0.138633817118E+04   -0.37148E-03   -0.49191E-01  5056   0.566E-01    0.145E-01
DAV:   2    -0.138633813217E+04    0.39003E-04   -0.33245E-03  5376   0.451E-02    0.854E-02
DAV:   3    -0.138633803535E+04    0.96822E-04   -0.75039E-04  5440   0.195E-02    0.227E-02
DAV:   4    -0.138633803428E+04    0.10683E-05   -0.74319E-05  6016   0.616E-03    0.109E-02
DAV:   5    -0.138633803506E+04   -0.77616E-06   -0.12771E-05  6208   0.247E-03    0.417E-03
DAV:   6    -0.138633803532E+04   -0.25642E-06   -0.17975E-06  5312   0.146E-03    0.197E-03
DAV:   7    -0.138633803565E+04   -0.33075E-06   -0.39745E-07  5280   0.577E-04    0.654E-04
DAV:   8    -0.138633803583E+04   -0.18711E-06   -0.78518E-08  5184   0.287E-04    0.315E-04
DAV:   9    -0.138633803602E+04   -0.19064E-06   -0.10311E-08  3520   0.154E-04    0.163E-04
DAV:  10    -0.138633803620E+04   -0.18100E-06   -0.10370E-08  3456   0.149E-04    0.853E-05
DAV:  11    -0.138633803629E+04   -0.89887E-07   -0.37998E-09  3136   0.896E-05    0.550E-05
DAV:  12    -0.138633803639E+04   -0.96989E-07   -0.34738E-09  3072   0.833E-05    0.426E-05
DAV:  13    -0.138633803645E+04   -0.56025E-07   -0.22038E-09  3072   0.658E-05    0.333E-05
DAV:  14    -0.138633803649E+04   -0.44995E-07   -0.19315E-09  3008   0.639E-05    0.259E-05
DAV:  15    -0.138633803652E+04   -0.25466E-07   -0.10050E-09  3008   0.478E-05    0.302E-05
DAV:  16    -0.138633803652E+04   -0.63883E-08    0.24582E-11  2944   0.327E-05
  76 F= -.14058184E+04 E0= -.14058184E+04  d E =0.392590E-04  mag=     0.0000
