 vasp.5.4.4.18Apr17-6-g9f103f2a35 (build Oct 13 2017 11:24:24) complex          
  
 executed on             LinuxIFC date 2021.10.27  08:50:39
 running on   48 total cores
 distrk:  each k-point on   48 cores,    1 groups
 distr:  one band on NCORES_PER_BAND=   6 cores,    8 groups


--------------------------------------------------------------------------------------------------------


 INCAR:
 POTCAR:    PAW_PBE Zr_sv 04Jan2005               
 POTCAR:    PAW_PBE O 08Apr2002                   
 POTCAR:    PAW_PBE H 15Jun2001                   
 POTCAR:    PAW_PBE C 08Apr2002                   
 POTCAR:    PAW_PBE Zr_sv 04Jan2005               
   VRHFIN =Zr: 4s4p5s4d                                                         
   LEXCH  = PE                                                                  
   EATOM  =  1284.2219 eV,   94.3876 Ry                                         
                                                                                
   TITEL  = PAW_PBE Zr_sv 04Jan2005                                             
   LULTRA =        F    use ultrasoft PP ?                                      
   IUNSCR =        1    unscreen: 0-lin 1-nonlin 2-no                           
   RPACOR =    2.200    partial core radius                                     
   POMASS =   91.224; ZVAL   =   12.000    mass and valenz                      
   RCORE  =    2.500    outmost cutoff radius                                   
   RWIGS  =    3.070; RWIGS  =    1.625    wigner-seitz radius (au A)           
   ENMAX  =  229.898; ENMIN  =  172.424 eV                                      
   ICORE  =        3    local potential                                         
   LCOR   =        T    correct aug charges                                     
   LPAW   =        T    paw PP                                                  
   EAUG   =  461.257                                                            
   DEXC   =    0.000                                                            
   RMAX   =    2.561    core radius for proj-oper                               
   RAUG   =    1.300    factor for augmentation sphere                          
   RDEP   =    2.597    radius for radial grids                                 
   RDEPT  =    2.007    core radius for aug-charge                              
                                                                                
   Atomic configuration                                                         
   11 entries                                                                   
     n  l   j            E        occ.                                          
     1  0  0.50    -17820.0161   2.0000                                         
     2  0  0.50     -2467.0882   2.0000                                         
     2  1  1.50     -2199.6095   6.0000                                         
     3  0  0.50      -402.4863   2.0000                                         
     3  1  1.50      -315.3675   6.0000                                         
     3  2  2.50      -172.4472  10.0000                                         
     4  0  0.50       -52.4146   2.0000                                         
     5  0  0.50        -3.8421   1.0000                                         
     4  1  1.50       -30.5054   6.0000                                         
     4  2  2.50        -2.3341   3.0000                                         
     4  3  2.50        -1.3606   0.0000                                         
   Description                                                                  
     l       E           TYP  RCUT    TYP  RCUT                                 
     0    -52.4145962     23  2.200                                             
     0     -3.8421270     23  2.500                                             
     1    -30.5053914     23  2.200                                             
     1     20.4087390     23  2.200                                             
     2     -2.3340816     23  2.500                                             
     2     -0.6120942     23  2.500                                             
     3     -4.0817478     23  2.500                                             
  local pseudopotential read in
  partial core-charges read in
  partial kinetic energy density read in
  atomic valenz-charges read in
  non local Contribution for L=           0  read in
    real space projection operators read in
  non local Contribution for L=           0  read in
    real space projection operators read in
  non local Contribution for L=           1  read in
    real space projection operators read in
  non local Contribution for L=           1  read in
    real space projection operators read in
  non local Contribution for L=           2  read in
    real space projection operators read in
  non local Contribution for L=           2  read in
    real space projection operators read in
    PAW grid and wavefunctions read in
 
   number of l-projection  operators is LMAX  =           6
   number of lm-projection operators is LMMAX =          18
 
 POTCAR:    PAW_PBE O 08Apr2002                   
   VRHFIN =O: s2p4                                                              
   LEXCH  = PE                                                                  
   EATOM  =   432.3788 eV,   31.7789 Ry                                         
                                                                                
   TITEL  = PAW_PBE O 08Apr2002                                                 
   LULTRA =        F    use ultrasoft PP ?                                      
   IUNSCR =        1    unscreen: 0-lin 1-nonlin 2-no                           
   RPACOR =    1.200    partial core radius                                     
   POMASS =   16.000; ZVAL   =    6.000    mass and valenz                      
   RCORE  =    1.520    outmost cutoff radius                                   
   RWIGS  =    1.550; RWIGS  =    0.820    wigner-seitz radius (au A)           
   ENMAX  =  400.000; ENMIN  =  300.000 eV                                      
   ICORE  =        2    local potential                                         
   LCOR   =        T    correct aug charges                                     
   LPAW   =        T    paw PP                                                  
   EAUG   =  605.392                                                            
   DEXC   =    0.000                                                            
   RMAX   =    1.553    core radius for proj-oper                               
   RAUG   =    1.300    factor for augmentation sphere                          
   RDEP   =    1.550    radius for radial grids                                 
   RDEPT  =    1.329    core radius for aug-charge                              
                                                                                
   Atomic configuration                                                         
    4 entries                                                                   
     n  l   j            E        occ.                                          
     1  0  0.50      -514.6923   2.0000                                         
     2  0  0.50       -23.9615   2.0000                                         
     2  1  0.50        -9.0305   4.0000                                         
     3  2  1.50        -9.5241   0.0000                                         
   Description                                                                  
     l       E           TYP  RCUT    TYP  RCUT                                 
     0    -23.9615318     23  1.200                                             
     0     -9.5240782     23  1.200                                             
     1     -9.0304911     23  1.520                                             
     1      8.1634956     23  1.520                                             
     2     -9.5240782      7  1.500                                             
  local pseudopotential read in
  partial core-charges read in
  partial kinetic energy density read in
  kinetic energy density of atom read in
  atomic valenz-charges read in
  non local Contribution for L=           0  read in
    real space projection operators read in
  non local Contribution for L=           0  read in
    real space projection operators read in
  non local Contribution for L=           1  read in
    real space projection operators read in
  non local Contribution for L=           1  read in
    real space projection operators read in
    PAW grid and wavefunctions read in
 
   number of l-projection  operators is LMAX  =           4
   number of lm-projection operators is LMMAX =           8
 
 POTCAR:    PAW_PBE H 15Jun2001                   
   VRHFIN =H: ultrasoft test                                                    
   LEXCH  = PE                                                                  
   EATOM  =    12.4884 eV,    0.9179 Ry                                         
                                                                                
   TITEL  = PAW_PBE H 15Jun2001                                                 
   LULTRA =        F    use ultrasoft PP ?                                      
   IUNSCR =        0    unscreen: 0-lin 1-nonlin 2-no                           
   RPACOR =    0.000    partial core radius                                     
   POMASS =    1.000; ZVAL   =    1.000    mass and valenz                      
   RCORE  =    1.100    outmost cutoff radius                                   
   RWIGS  =    0.700; RWIGS  =    0.370    wigner-seitz radius (au A)           
   ENMAX  =  250.000; ENMIN  =  200.000 eV                                      
   RCLOC  =    0.701    cutoff for local pot                                    
   LCOR   =        T    correct aug charges                                     
   LPAW   =        T    paw PP                                                  
   EAUG   =  400.000                                                            
   RMAX   =    1.123    core radius for proj-oper                               
   RAUG   =    1.200    factor for augmentation sphere                          
   RDEP   =    1.112    radius for radial grids                                 
   RDEPT  =    0.926    core radius for aug-charge                              
                                                                                
   Atomic configuration                                                         
    2 entries                                                                   
     n  l   j            E        occ.                                          
     1  0  0.50        -6.4927   1.0000                                         
     2  1  0.50        -3.4015   0.0000                                         
   Description                                                                  
     l       E           TYP  RCUT    TYP  RCUT                                 
     0     -6.4927494     23  1.100                                             
     0      6.8029130     23  1.100                                             
     1     -4.0817478     23  1.100                                             
  local pseudopotential read in
  atomic valenz-charges read in
  non local Contribution for L=           0  read in
    real space projection operators read in
  non local Contribution for L=           0  read in
    real space projection operators read in
  non local Contribution for L=           1  read in
    real space projection operators read in
    PAW grid and wavefunctions read in
 
   number of l-projection  operators is LMAX  =           3
   number of lm-projection operators is LMMAX =           5
 
 POTCAR:    PAW_PBE C 08Apr2002                   
   VRHFIN =C: s2p2                                                              
   LEXCH  = PE                                                                  
   EATOM  =   147.1560 eV,   10.8157 Ry                                         
                                                                                
   TITEL  = PAW_PBE C 08Apr2002                                                 
   LULTRA =        F    use ultrasoft PP ?                                      
   IUNSCR =        1    unscreen: 0-lin 1-nonlin 2-no                           
   RPACOR =    1.200    partial core radius                                     
   POMASS =   12.011; ZVAL   =    4.000    mass and valenz                      
   RCORE  =    1.500    outmost cutoff radius                                   
   RWIGS  =    1.630; RWIGS  =    0.863    wigner-seitz radius (au A)           
   ENMAX  =  400.000; ENMIN  =  300.000 eV                                      
   ICORE  =        2    local potential                                         
   LCOR   =        T    correct aug charges                                     
   LPAW   =        T    paw PP                                                  
   EAUG   =  644.873                                                            
   DEXC   =    0.000                                                            
   RMAX   =    1.529    core radius for proj-oper                               
   RAUG   =    1.300    factor for augmentation sphere                          
   RDEP   =    1.501    radius for radial grids                                 
   RDEPT  =    1.300    core radius for aug-charge                              
                                                                                
   Atomic configuration                                                         
    4 entries                                                                   
     n  l   j            E        occ.                                          
     1  0  0.50      -273.3789   2.0000                                         
     2  0  0.50       -13.7508   2.0000                                         
     2  1  0.50        -5.2854   2.0000                                         
     3  2  1.50        -5.4423   0.0000                                         
   Description                                                                  
     l       E           TYP  RCUT    TYP  RCUT                                 
     0    -13.7508458     23  1.200                                             
     0     -8.2022199     23  1.200                                             
     1     -5.2854383     23  1.500                                             
     1     34.0145650     23  1.500                                             
     2     -5.4423304      7  1.500                                             
  local pseudopotential read in
  partial core-charges read in
  partial kinetic energy density read in
  atomic valenz-charges read in
  non local Contribution for L=           0  read in
    real space projection operators read in
  non local Contribution for L=           0  read in
    real space projection operators read in
  non local Contribution for L=           1  read in
    real space projection operators read in
  non local Contribution for L=           1  read in
    real space projection operators read in
    PAW grid and wavefunctions read in
 
   number of l-projection  operators is LMAX  =           4
   number of lm-projection operators is LMMAX =           8
 
 Optimization of the real space projectors (new method)

 maximal supplied QI-value         = 15.12
 optimisation between [QCUT,QGAM] = [ 11.34, 22.83] = [ 36.00,145.93] Ry 
 Optimized for a Real-space Cutoff    1.47 Angstroem

   l    n(q)    QCUT    max X(q) W(low)/X(q) W(high)/X(q)  e(spline) 
   0     10    11.338    12.107    0.38E-04    0.13E-04    0.27E-07
   0     10    11.338     9.948    0.69E-04    0.30E-04    0.38E-07
   1     10    11.338     3.563    0.26E-04    0.18E-04    0.40E-07
   1     10    11.338     4.524    0.25E-03    0.39E-04    0.44E-06
   2      9    11.338    87.261    0.26E-03    0.91E-05    0.26E-06
   2      9    11.338    70.950    0.25E-03    0.91E-05    0.25E-06
 Optimization of the real space projectors (new method)

 maximal supplied QI-value         = 24.76
 optimisation between [QCUT,QGAM] = [ 11.39, 22.77] = [ 36.31,145.25] Ry 
 Optimized for a Real-space Cutoff    1.00 Angstroem

   l    n(q)    QCUT    max X(q) W(low)/X(q) W(high)/X(q)  e(spline) 
   0      7    11.387    20.381    0.39E-03    0.13E-02    0.15E-06
   0      7    11.387    15.268    0.42E-03    0.14E-02    0.17E-06
   1      6    11.387     5.964    0.41E-03    0.11E-02    0.17E-06
   1      6    11.387     5.382    0.39E-03    0.87E-03    0.15E-06
 Optimization of the real space projectors (new method)

 maximal supplied QI-value         = 34.20
 optimisation between [QCUT,QGAM] = [ 11.29, 22.57] = [ 35.68,142.71] Ry 
 Optimized for a Real-space Cutoff    1.16 Angstroem

   l    n(q)    QCUT    max X(q) W(low)/X(q) W(high)/X(q)  e(spline) 
   0      8    11.287    19.460    0.40E-03    0.73E-03    0.16E-06
   0      8    11.287    12.209    0.38E-03    0.70E-03    0.15E-06
   1      7    11.287     4.655    0.22E-03    0.25E-04    0.22E-06
 Optimization of the real space projectors (new method)

 maximal supplied QI-value         = 25.13
 optimisation between [QCUT,QGAM] = [ 11.31, 22.87] = [ 35.82,146.48] Ry 
 Optimized for a Real-space Cutoff    1.00 Angstroem

   l    n(q)    QCUT    max X(q) W(low)/X(q) W(high)/X(q)  e(spline) 
   0      7    11.310   115.676    0.43E-03    0.13E-02    0.19E-06
   0      7    11.310    87.132    0.43E-03    0.13E-02    0.18E-06
   1      6    11.310     4.429    0.42E-03    0.74E-03    0.11E-06
   1      6    11.310     2.733    0.34E-03    0.55E-03    0.92E-07
  PAW_PBE Zr_sv 04Jan2005               :
 energy of atom  1       EATOM=-1284.2219
 kinetic energy error for atom=    0.0049 (will be added to EATOM!!)
  PAW_PBE O 08Apr2002                   :
 energy of atom  2       EATOM= -432.3788
 kinetic energy error for atom=    0.0224 (will be added to EATOM!!)
  PAW_PBE H 15Jun2001                   :
 energy of atom  3       EATOM=  -12.4884
 kinetic energy error for atom=    0.0020 (will be added to EATOM!!)
  PAW_PBE C 08Apr2002                   :
 energy of atom  4       EATOM= -147.1560
 kinetic energy error for atom=    0.0076 (will be added to EATOM!!)
 
 
 POSCAR: CONTCAR1-ZrO2-+H-propyl-C2              
  positions in direct lattice
  velocities in cartesian coordinates
  No initial velocities read in
 exchange correlation table for  LEXCH =        8
   RHO(1)=    0.500       N(1)  =     2000
   RHO(2)=  100.500       N(2)  =     4000
 


--------------------------------------------------------------------------------------------------------


 ion  position               nearest neighbor table
   1  0.088  0.321  0.038-  78 2.10  62 2.10  50 2.18  74 2.19  61 2.26  54 2.30  16 3.37   6 3.50
                            12 3.52  13 3.65
   2  0.338  0.821  0.038-  79 2.10  63 2.10  51 2.18  75 2.19  58 2.26  55 2.30  13 3.37   7 3.50
                             9 3.52  14 3.65
   3  0.588  0.321  0.038-  80 2.10  64 2.10  52 2.18  76 2.19  59 2.26  56 2.30  14 3.37   8 3.50
                            10 3.52  15 3.65
   4  0.838  0.821  0.038-  81 2.10  65 2.10  53 2.18  77 2.19  60 2.26  57 2.30  15 3.37   5 3.50
                            11 3.52  16 3.65
   5  0.070  0.834  0.049-  82 2.07  66 2.10  65 2.18  58 2.19  57 2.22  70 2.30  12 3.37  17 3.47
                             4 3.50  16 3.52   9 3.65
   6  0.320  0.334  0.049-  83 2.06  67 2.10  62 2.18  59 2.19  54 2.22  71 2.30   9 3.37  18 3.48
                             1 3.50  13 3.52  10 3.65
   7  0.570  0.834  0.049-  84 2.06  68 2.10  63 2.18  60 2.19  55 2.22  72 2.30  10 3.37  19 3.49
                             2 3.50  14 3.52  11 3.65
   8  0.820  0.334  0.049-  85 2.08  69 2.10  64 2.18  61 2.19  56 2.22  73 2.30  11 3.37   3 3.50
                            20 3.51  15 3.52  12 3.65
   9  0.238  0.068  0.057-  62 2.10  86 2.16  67 2.18  70 2.19  75 2.22  58 2.30   6 3.37  17 3.48
                            14 3.50  22 3.52   2 3.52   5 3.65
  10  0.488  0.568  0.057-  63 2.10  87 2.18  68 2.18  71 2.19  76 2.22  59 2.30   7 3.37  18 3.48
                            15 3.50   3 3.52  23 3.52   6 3.65
  11  0.738  0.068  0.057-  64 2.10  69 2.18  88 2.18  72 2.19  77 2.22  60 2.30   8 3.37  19 3.47
                            16 3.50   4 3.52  24 3.52   7 3.65
  12  0.988  0.568  0.057-  65 2.10  66 2.18  89 2.18  73 2.19  74 2.22  61 2.30   5 3.37  13 3.50
                             1 3.52  21 3.53  20 3.53   8 3.65
  13  0.220  0.581  0.068-  51 2.10  66 2.10  79 2.18  54 2.19  71 2.26  90 2.26  74 2.30   2 3.37
                            21 3.49  26 3.50  12 3.50  18 3.50   6 3.52   1 3.65
  14  0.470  0.081  0.068-  52 2.10  67 2.10  80 2.18  55 2.19  72 2.26  91 2.27  75 2.30   3 3.37
                            27 3.48  22 3.49   9 3.50  19 3.51   7 3.52   2 3.65
  15  0.720  0.581  0.068-  53 2.10  68 2.10  81 2.18  56 2.19  73 2.26  92 2.26  76 2.30   4 3.37
                            23 3.49  28 3.50  10 3.50   8 3.52  20 3.53   3 3.65
  16  0.970  0.081  0.068-  50 2.10  69 2.10  78 2.18  57 2.19  70 2.26  93 2.27  77 2.30   1 3.37
                            24 3.50  17 3.50  11 3.50  25 3.50   5 3.52   4 3.65
  17  0.106  0.983  0.171-  94 2.09 110 2.13  82 2.16  70 2.19 106 2.19  93 2.23  86 2.30  32 3.39
                             5 3.47   9 3.48  16 3.50  22 3.52  25 3.54  29 3.66
  18  0.356  0.484  0.171-  95 2.09 111 2.14  83 2.16  71 2.19 107 2.19  90 2.22  87 2.30  29 3.37
                             6 3.48  10 3.48  13 3.50  23 3.52  26 3.54  30 3.65
  19  0.608  0.984  0.171-  96 2.09 112 2.15  84 2.18  72 2.19 108 2.20  91 2.23  88 2.28  30 3.39
                            11 3.47   7 3.49  24 3.49  14 3.51  27 3.52  31 3.70
  20  0.855  0.483  0.173-  97 2.10 113 2.11  85 2.17 109 2.20  92 2.23  73 2.24  89 2.33  31 3.31
                            28 3.51   8 3.51  12 3.53  21 3.53  15 3.53  32 3.65
  21  0.089  0.495  0.182- 114 2.09  98 2.11  97 2.17  90 2.18  74 2.24  89 2.27 102 2.29  25 3.37
                            13 3.49  32 3.51  12 3.53  20 3.53  26 3.63  33 3.64
  22  0.339  0.995  0.182- 115 2.10  99 2.11  94 2.17  91 2.19  75 2.23 103 2.25  86 2.27  26 3.38
                            14 3.49  29 3.51   9 3.52  17 3.52  34 3.61  27 3.62
  23  0.589  0.493  0.182- 100 2.08 116 2.12  95 2.17  92 2.18  76 2.23  87 2.29 104 2.31  27 3.36
                            15 3.49  35 3.51  18 3.52  10 3.52  30 3.56  28 3.69
  24  0.839  0.996  0.183- 117 2.10 101 2.11  93 2.18  96 2.18  77 2.25  88 2.26 105 2.28  28 3.36
                            19 3.49  16 3.50  11 3.52  31 3.54  36 3.62  25 3.64
  25  0.005  0.230  0.191-  78 2.10  97 2.10 121 2.17  98 2.19 105 2.21 106 2.30  93 2.30  21 3.37
                            37 3.45  16 3.50  17 3.54  29 3.55  24 3.64  36 3.65
  26  0.253  0.730  0.191-  79 2.10  94 2.10 102 2.18  99 2.20 118 2.20 107 2.29  90 2.29  22 3.38
                            38 3.46  13 3.50  18 3.54  30 3.54  21 3.63  33 3.65
  27  0.504  0.229  0.191-  80 2.09  95 2.11 119 2.18 100 2.18 103 2.19  91 2.29 108 2.30  23 3.36
                            39 3.47  14 3.48  19 3.52  31 3.59  22 3.62  34 3.66
  28  0.757  0.730  0.191-  81 2.08  96 2.11 101 2.16 120 2.22 104 2.23 109 2.24  92 2.30  24 3.36
                            15 3.50  35 3.50  32 3.50  20 3.51  40 3.54  23 3.69
  29  0.240  0.242  0.201-  98 2.10  83 2.10 122 2.19 103 2.21 111 2.21  86 2.23 106 2.28  18 3.37
                            37 3.41  42 3.50  22 3.51  25 3.55  34 3.63  17 3.66
  30  0.488  0.743  0.200-  99 2.08  84 2.09 112 2.19 123 2.21  87 2.22 104 2.25 107 2.29  19 3.39
                            38 3.44  43 3.49  35 3.50  26 3.54  23 3.56  18 3.65
  31  0.741  0.246  0.204-  85 2.11 100 2.12 113 2.12 105 2.21 124 2.25  88 2.30 108 2.31  20 3.31
                            39 3.44  24 3.54  44 3.57  27 3.59  36 3.62  19 3.70
  32  0.989  0.741  0.202- 101 2.12  82 2.12 110 2.19 102 2.21 125 2.21  89 2.22 109 2.27  17 3.39
                            41 3.47  40 3.48  28 3.50  21 3.51  33 3.64  20 3.65
  33  0.123  0.641  0.314- 142 2.02 126 2.16 138 2.17 114 2.20 125 2.25 118 2.37 102 2.43  45 3.23
                            41 3.48  38 3.54  21 3.64  32 3.64  26 3.65  46 3.71
  34  0.371  0.140  0.313- 143 2.02 127 2.14 139 2.19 115 2.20 122 2.24 119 2.35 103 2.43  46 3.23
                            42 3.49  39 3.53  22 3.61  29 3.63  27 3.66  47 3.66
  35  0.623  0.647  0.305- 140 2.15 128 2.16 116 2.19 123 2.19 104 2.20 120 2.26 144 2.26  49 3.27
                            47 3.43  43 3.43  28 3.50  30 3.50  23 3.51  40 3.57  48 3.71
  36  0.874  0.139  0.314- 145 2.03 129 2.12 141 2.13 117 2.22 124 2.29 105 2.38 121 2.43  48 3.22
                            44 3.43  37 3.54  24 3.62  31 3.62  25 3.65  45 3.74
  37  0.110  0.161  0.312- 130 2.09 121 2.14 106 2.16 122 2.16 129 2.16 134 2.17  29 3.41  25 3.45
                            41 3.45  45 3.51  36 3.54  42 3.58
  38  0.358  0.660  0.313- 131 2.10 126 2.15 107 2.16 135 2.16 118 2.16 123 2.17  30 3.44  42 3.44
                            26 3.46  46 3.53  33 3.54  43 3.58
  39  0.606  0.158  0.314- 136 2.09 132 2.11 108 2.15 127 2.15 124 2.18 119 2.21  43 3.43  31 3.44
                            47 3.46  27 3.47  34 3.53  44 3.68
  40  0.859  0.662  0.317- 133 2.11 125 2.17 120 2.20 137 2.21 146 2.22 128 2.25 109 2.26  32 3.48
                            48 3.50  44 3.53  28 3.54  35 3.57  41 3.59  49 3.65
  41  0.027  0.889  0.324- 110 2.05 138 2.15 129 2.16 137 2.18 130 2.20 125 2.31  37 3.45  32 3.47
                            33 3.48  46 3.50  40 3.59
  42  0.275  0.389  0.325- 111 2.06 139 2.13 126 2.14 131 2.24 134 2.26 122 2.29  38 3.44  34 3.49
                            47 3.50  29 3.50  37 3.58
  43  0.524  0.887  0.325- 112 2.06 127 2.14 140 2.15 132 2.18 135 2.27 123 2.29  35 3.43  39 3.43
                            30 3.49  48 3.55  38 3.58
  44  0.782  0.383  0.334- 147 2.09 141 2.11 133 2.16 113 2.24 124 2.26 128 2.27 136 2.61  49 3.26
                            36 3.43  45 3.45  40 3.53  31 3.57  39 3.68
  45  0.011  0.407  0.336- 142 2.03 114 2.07 133 2.16 141 2.24 134 2.29 121 2.30  33 3.23  44 3.45
                            37 3.51  36 3.74
  46  0.259  0.907  0.336- 143 2.02 115 2.07 130 2.15 138 2.27 118 2.30 135 2.31  34 3.23  41 3.50
                            38 3.53  33 3.71
  47  0.507  0.400  0.334- 116 2.07 136 2.13 131 2.17 144 2.20 119 2.23 139 2.24  35 3.43  39 3.46
                            42 3.50  34 3.66  49 3.89
  48  0.760  0.908  0.336- 145 2.01 117 2.05 132 2.17 137 2.25 120 2.31 140 2.36  36 3.22  40 3.50
                            43 3.55  35 3.71
  49  0.698  0.551  0.421- 147 1.93 144 2.10 146 2.16 128 2.30 158 2.33  44 3.26  35 3.27  40 3.65
                            47 3.89
  50  0.024  0.173  0.000-  16 2.10   1 2.18
  51  0.274  0.673  0.000-  13 2.10   2 2.18
  52  0.524  0.173  0.000-  14 2.10   3 2.18
  53  0.774  0.673  0.000-  15 2.10   4 2.18
  54  0.215  0.432  0.016-  13 2.19   6 2.22   1 2.30
  55  0.465  0.932  0.016-  14 2.19   7 2.22   2 2.30
  56  0.715  0.432  0.016-  15 2.19   8 2.22   3 2.30
  57  0.965  0.932  0.016-  16 2.19   5 2.22   4 2.30
  58  0.207  0.891  0.025-   5 2.19   2 2.26   9 2.30
  59  0.457  0.391  0.025-   6 2.19   3 2.26  10 2.30
  60  0.707  0.891  0.025-   7 2.19   4 2.26  11 2.30
  61  0.957  0.391  0.025-   8 2.19   1 2.26  12 2.30
  62  0.197  0.226  0.044-   9 2.10   1 2.10   6 2.18
  63  0.447  0.726  0.044-  10 2.10   2 2.10   7 2.18
  64  0.697  0.226  0.044-  11 2.10   3 2.10   8 2.18
  65  0.947  0.726  0.044-  12 2.10   4 2.10   5 2.18
  66  0.111  0.675  0.062-   5 2.10  13 2.10  12 2.18
  67  0.361  0.175  0.062-   6 2.10  14 2.10   9 2.18
  68  0.611  0.675  0.062-   7 2.10  15 2.10  10 2.18
  69  0.861  0.175  0.062-   8 2.10  16 2.10  11 2.18
  70  0.101  0.010  0.081-  17 2.19   9 2.19  16 2.26   5 2.30
  71  0.351  0.510  0.081-  18 2.19  10 2.19  13 2.26   6 2.30
  72  0.601  0.010  0.081-  19 2.19  11 2.19  14 2.26   7 2.30
  73  0.851  0.510  0.081-  12 2.19  20 2.24  15 2.26   8 2.30
  74  0.093  0.470  0.090-   1 2.19  12 2.22  21 2.24  13 2.30
  75  0.343  0.970  0.090-   2 2.19   9 2.22  22 2.23  14 2.30
  76  0.593  0.470  0.090-   3 2.19  10 2.22  23 2.23  15 2.30
  77  0.843  0.970  0.090-   4 2.19  11 2.22  24 2.25  16 2.30
  78  0.034  0.229  0.106-   1 2.10  25 2.10  16 2.18
  79  0.284  0.729  0.106-   2 2.10  26 2.10  13 2.18
  80  0.534  0.229  0.106-  27 2.09   3 2.10  14 2.18
  81  0.784  0.729  0.106-  28 2.08   4 2.10  15 2.18
  82  0.045  0.833  0.134-   5 2.07  32 2.12  17 2.16
  83  0.296  0.334  0.134-   6 2.06  29 2.10  18 2.16
  84  0.546  0.834  0.133-   7 2.06  30 2.09  19 2.18
  85  0.796  0.333  0.134-   8 2.08  31 2.11  20 2.17
  86  0.231  0.093  0.146-   9 2.16  29 2.23  22 2.27  17 2.30
  87  0.482  0.593  0.147-  10 2.18  30 2.22  23 2.29  18 2.30
  88  0.732  0.094  0.147-  11 2.18  24 2.26  19 2.28  31 2.30
  89  0.982  0.593  0.147-  12 2.18  32 2.22  21 2.27  20 2.33
  90  0.226  0.552  0.160-  21 2.18  18 2.22  13 2.26  26 2.29
  91  0.476  0.051  0.161-  22 2.19  19 2.23  14 2.27  27 2.29
  92  0.725  0.552  0.161-  23 2.18  20 2.23  15 2.26  28 2.30
  93  0.975  0.053  0.161-  24 2.18  17 2.23  16 2.27  25 2.30
  94  0.215  0.890  0.181-  17 2.09  26 2.10  22 2.17
  95  0.465  0.390  0.181-  18 2.09  27 2.11  23 2.17
  96  0.715  0.890  0.181-  19 2.09  28 2.11  24 2.18
  97  0.965  0.391  0.182-  20 2.10  25 2.10  21 2.17
  98  0.130  0.335  0.192-  29 2.10  21 2.11  25 2.19
  99  0.379  0.835  0.193-  30 2.08  22 2.11  26 2.20
 100  0.628  0.335  0.194-  23 2.08  31 2.12  27 2.18
 101  0.880  0.837  0.194-  24 2.11  32 2.12  28 2.16
 102  0.118  0.671  0.214-  26 2.18  32 2.21  21 2.29  33 2.43
 103  0.367  0.169  0.213-  27 2.19  29 2.21  22 2.25  34 2.43
 104  0.619  0.671  0.214-  35 2.20  28 2.23  30 2.25  23 2.31
 105  0.868  0.171  0.216-  25 2.21  31 2.21  24 2.28  36 2.38
 106  0.116  0.130  0.224-  37 2.16  17 2.19  29 2.28  25 2.30
 107  0.364  0.631  0.224-  38 2.16  18 2.19  26 2.29  30 2.29
 108  0.615  0.132  0.225-  39 2.15  19 2.20  27 2.30  31 2.31
 109  0.864  0.632  0.225-  20 2.20  28 2.24  40 2.26  32 2.27
 110  0.047  0.893  0.240-  41 2.05  17 2.13  32 2.19
 111  0.297  0.396  0.241-  42 2.06  18 2.14  29 2.21
 112  0.547  0.893  0.240-  43 2.06  19 2.15  30 2.19
 113  0.796  0.394  0.241-  20 2.11  31 2.12  44 2.24
 114  0.071  0.493  0.269-  45 2.07  21 2.09  33 2.20
 115  0.315  0.992  0.268-  46 2.07  22 2.10  34 2.20
 116  0.563  0.494  0.269-  47 2.07  23 2.12  35 2.19
 117  0.811  0.994  0.268-  48 2.05  24 2.10  36 2.22
 118  0.251  0.750  0.283-  38 2.16  26 2.20  46 2.30  33 2.37
 119  0.497  0.249  0.281-  27 2.18  39 2.21  47 2.23  34 2.35
 120  0.750  0.749  0.283-  40 2.20  28 2.22  35 2.26  48 2.31
 121  0.005  0.251  0.281-  37 2.14  25 2.17  45 2.30  36 2.43
 122  0.246  0.214  0.291-  37 2.16  29 2.19  34 2.24  42 2.29
 123  0.494  0.712  0.290-  38 2.17  35 2.19  30 2.21  43 2.29
 124  0.744  0.216  0.296-  39 2.18  31 2.25  44 2.26  36 2.29
 125  0.995  0.712  0.293-  40 2.17  32 2.21  33 2.25  41 2.31
 126  0.239  0.554  0.330-  42 2.14  38 2.15  33 2.16
 127  0.486  0.052  0.327-  34 2.14  43 2.14  39 2.15
 128  0.732  0.553  0.327-  35 2.16  40 2.25  44 2.27  49 2.30
 129  0.990  0.056  0.328-  36 2.12  41 2.16  37 2.16
 130  0.147  0.004  0.331-  37 2.09  46 2.15  41 2.20
 131  0.399  0.505  0.334-  38 2.10  47 2.17  42 2.24
 132  0.643  1.000  0.334-  39 2.11  48 2.17  43 2.18
 133  0.897  0.500  0.327-  40 2.11  44 2.16  45 2.16
 134  0.138  0.321  0.351-  37 2.17  42 2.26  45 2.29
 135  0.386  0.819  0.351-  38 2.16  43 2.27  46 2.31
 136  0.617  0.310  0.354-  39 2.09  47 2.13  44 2.61
 137  0.890  0.834  0.345-  41 2.18  40 2.21  48 2.25
 138  0.132  0.800  0.356-  41 2.15  33 2.17  46 2.27
 139  0.381  0.299  0.355-  42 2.13  34 2.19  47 2.24
 140  0.629  0.793  0.355-  35 2.15  43 2.15  48 2.36
 141  0.891  0.294  0.356-  44 2.11  36 2.13  45 2.24
 142  0.065  0.544  0.375-  33 2.02  45 2.03
 143  0.316  0.043  0.375-  46 2.02  34 2.02
 144  0.577  0.541  0.378-  49 2.10  47 2.20  35 2.26
 145  0.816  0.042  0.375-  48 2.01  36 2.03
 146  0.812  0.667  0.405- 154 0.97  49 2.16  40 2.22
 147  0.756  0.416  0.418-  49 1.93  44 2.09
 148  0.784  0.767  0.507- 157 1.10
 149  0.551  0.678  0.549- 156 1.11
 150  0.691  0.803  0.468- 157 1.11
 151  0.538  0.549  0.514- 156 1.10
 152  0.539  0.673  0.476- 156 1.10
 153  0.699  0.596  0.541- 158 1.11
 154  0.838  0.722  0.431- 146 0.97
 155  0.688  0.805  0.541- 157 1.11
 156  0.570  0.634  0.512- 151 1.10 152 1.10 149 1.11 158 1.54
 157  0.711  0.759  0.505- 148 1.10 150 1.11 155 1.11 158 1.54
 158  0.672  0.638  0.505- 153 1.11 157 1.54 156 1.54  49 2.33
 
  Warning from LATTYP: Monoclinic adjustement (A1->A3, A2->A1, A3->A2)!
  Warning from LATTYP: Got some problem with cell dimensions!
  Tried to take original basis but could not verify dimensions!
  LATTYP: Found a simple monoclinic cell.
 ALAT       =    18.5584556648
 B/A-ratio  =     1.2917238965
 C/A-ratio  =     1.7011970181
 COS(beta)  =    -0.9496615564
  
  Lattice vectors:
  
 A1 = ( -14.0305058395, -12.1474763861,   0.0000000000)
 A2 = (   0.0000000000,   0.0000000000, -23.9724006653)
 A3 = (  29.1411063110,  12.1474763861,   0.0000000000)


Analysis of symmetry for initial positions (statically):
=====================================================================
 Subroutine PRICEL returns:
 Original cell was already a primitive cell.
 

 Routine SETGRP: Setting up the symmetry group for a 
 simple monoclinic supercell.


 Subroutine GETGRP returns: Found  1 space group operations
 (whereof  1 operations were pure point group operations)
 out of a pool of  4 trial point group operations.


The static configuration has the point symmetry C_1 .


Analysis of symmetry for dynamics (positions and initial velocities):
=====================================================================
 Subroutine PRICEL returns:
 Original cell was already a primitive cell.
 

 Routine SETGRP: Setting up the symmetry group for a 
 simple monoclinic supercell.


 Subroutine GETGRP returns: Found  1 space group operations
 (whereof  1 operations were pure point group operations)
 out of a pool of  4 trial point group operations.


The dynamic configuration has the point symmetry C_1 .


Analysis of constrained symmetry for selective dynamics:
=====================================================================
 Subroutine PRICEL returns:
 Original cell was already a primitive cell.
 

 Routine SETGRP: Setting up the symmetry group for a 
 simple monoclinic supercell.


 Subroutine GETGRP returns: Found  1 space group operations
 (whereof  1 operations were pure point group operations)
 out of a pool of  4 trial point group operations.


The constrained configuration has the point symmetry C_1 .


Analysis of structural, dynamic, and magnetic symmetry:
=====================================================================
 Subroutine PRICEL returns:
 Original cell was already a primitive cell.
 

 Routine SETGRP: Setting up the symmetry group for a 
 simple monoclinic supercell.


 Subroutine GETGRP returns: Found  1 space group operations
 (whereof  1 operations were pure point group operations)
 out of a pool of  4 trial point group operations.


The magnetic configuration has the point symmetry C_1 .


 Subroutine INISYM returns: Found  1 space group operations
 (whereof  1 operations are pure point group operations),
 and found     1 'primitive' translations

 
 
 KPOINTS: Monkhorst Pack                          

Automatic generation of k-mesh.
Space group operators:
 irot       det(A)        alpha          n_x          n_y          n_z        tau_x        tau_y        tau_z
    1     1.000000     0.000001     1.000000     0.000000     0.000000     0.000000     0.000000     0.000000
 
 Subroutine IBZKPT returns following result:
 ===========================================
 
 Found      2 irreducible k-points:
 
 Following reciprocal coordinates:
            Coordinates               Weight
  0.250000  0.250000  0.000000      2.000000
 -0.250000  0.250000  0.000000      2.000000
 
 Following cartesian coordinates:
            Coordinates               Weight
  0.016545  0.022051  0.000000      2.000000
 -0.016545  0.019109  0.000000      2.000000
 


--------------------------------------------------------------------------------------------------------




 Dimension of arrays:
   k-points           NKPTS =      2   k-points in BZ     NKDIM =      2   number of bands    NBANDS=    640
   number of dos      NEDOS =    301   number of ions     NIONS =    158
   non local maximal  LDIM  =      6   non local SUM 2l+1 LMDIM =     18
   total plane-waves  NPLWV = 823200
   max r-space proj   IRMAX =   2561   max aug-charges    IRDMAX=   7978
   dimension x,y,z NGX =    84 NGY =   70 NGZ =  140
   dimension x,y,z NGXF=   168 NGYF=  140 NGZF=  280
   support grid    NGXF=   168 NGYF=  140 NGZF=  280
   ions per type =              49  98   8   3
   NGX,Y,Z   is equivalent  to a cutoff of   9.24,  9.54,  9.71 a.u.
   NGXF,Y,Z  is equivalent  to a cutoff of  18.48, 19.08, 19.42 a.u.

 SYSTEM =  mZrO2_n111                              
 POSCAR =  CONTCAR1-ZrO2-+H-propyl-C2              

 Startparameter for this run:
   NWRITE =      2    write-flag & timer
   PREC   = normal    normal or accurate (medium, high low for compatibility)
   ISTART =      1    job   : 0-new  1-cont  2-samecut
   ICHARG =      1    charge: 1-file 2-atom 10-const
   ISPIN  =      2    spin polarized calculation?
   LNONCOLLINEAR =      F non collinear calculations
   LSORBIT =      F    spin-orbit coupling
   INIWAV =      1    electr: 0-lowe 1-rand  2-diag
   LASPH  =      F    aspherical Exc in radial PAW
   METAGGA=      F    non-selfconsistent MetaGGA calc.

 Electronic Relaxation 1
   ENCUT  =  500.0 eV  36.75 Ry    6.06 a.u.  27.55 22.24 43.71*2*pi/ulx,y,z
   ENINI  =  500.0     initial cutoff
   ENAUG  =  644.9 eV  augmentation charge cutoff
   NELM   =    300;   NELMIN=  2; NELMDL=  0     # of ELM steps 
   EDIFF  = 0.1E-05   stopping-criterion for ELM
   LREAL  =      T    real-space projection
   NLSPLINE    = F    spline interpolate recip. space projectors
   LCOMPAT=      F    compatible to vasp.4.4
   GGA_COMPAT  = T    GGA compatible to vasp.4.4-vasp.4.6
   LMAXPAW     = -100 max onsite density
   LMAXMIX     =    2 max onsite mixed and CHGCAR
   VOSKOWN=      0    Vosko Wilk Nusair interpolation
   ROPT   =   -0.00050  -0.00050  -0.00050  -0.00050
 Ionic relaxation
   EDIFFG = -.2E-01   stopping-criterion for IOM
   NSW    =      0    number of steps for IOM
   NBLOCK =      1;   KBLOCK =      1    inner block; outer block 
   IBRION =     -1    ionic relax: 0-MD 1-quasi-New 2-CG
   NFREE  =      1    steps in history (QN), initial steepest desc. (CG)
   ISIF   =      2    stress and relaxation
   IWAVPR =     10    prediction:  0-non 1-charg 2-wave 3-comb
   ISYM   =      2    0-nonsym 1-usesym 2-fastsym
   LCORR  =      T    Harris-Foulkes like correction to forces

   POTIM  = 0.5000    time-step for ionic-motion
   TEIN   =    0.0    initial temperature
   TEBEG  =    0.0;   TEEND  =   0.0 temperature during run
   SMASS  =  -3.00    Nose mass-parameter (am)
   estimated Nose-frequenzy (Omega)   =  0.10E-29 period in steps =****** mass=  -0.522E-26a.u.
   SCALEE = 1.0000    scale energy and forces
   NPACO  =    256;   APACO  = 16.0  distance and # of slots for P.C.
   PSTRESS=    0.0 pullay stress

  Mass of Ions in am
   POMASS =  91.22 16.00  1.00 12.01
  Ionic Valenz
   ZVAL   =  12.00  6.00  1.00  4.00
  Atomic Wigner-Seitz radii
   RWIGS  =  -1.00 -1.00 -1.00 -1.00
  virtual crystal weights 
   VCA    =   1.00  1.00  1.00  1.00
   NELECT =    1196.0000    total number of electrons
   NUPDOWN=      -1.0000    fix difference up-down

 DOS related values:
   EMIN   =  10.00;   EMAX   =-10.00  energy-range for DOS
   EFERMI =   0.00
   ISMEAR =     0;   SIGMA  =   0.05  broadening in eV -4-tet -1-fermi 0-gaus

 Electronic relaxation 2 (details)
   IALGO  =     38    algorithm
   LDIAG  =      T    sub-space diagonalisation (order eigenvalues)
   LSUBROT=      F    optimize rotation matrix (better conditioning)
   TURBO    =      0    0=normal 1=particle mesh
   IRESTART =      0    0=no restart 2=restart with 2 vectors
   NREBOOT  =      0    no. of reboots
   NMIN     =      0    reboot dimension
   EREF     =   0.00    reference energy to select bands
   IMIX   =      4    mixing-type and parameters
     AMIX     =   0.40;   BMIX     =  1.00
     AMIX_MAG =   1.60;   BMIX_MAG =  1.00
     AMIN     =   0.10
     WC   =   100.;   INIMIX=   1;  MIXPRE=   1;  MAXMIX= -45

 Intra band minimization:
   WEIMIN = 0.0000     energy-eigenvalue tresh-hold
   EBREAK =  0.39E-09  absolut break condition
   DEPER  =   0.30     relativ break condition  

   TIME   =   0.40     timestep for ELM

  volume/ion in A,a.u.               =      27.85       187.94
  Fermi-wavevector in a.u.,A,eV,Ry     =   1.060455  2.003969 15.300624  1.124564
  Thomas-Fermi vector in A             =   2.195836
 
 Write flags
   LWAVE        =      F    write WAVECAR
   LDOWNSAMPLE  =      F    k-point downsampling of WAVECAR
   LCHARG       =      F    write CHGCAR
   LVTOT        =      F    write LOCPOT, total local potential
   LVHAR        =      F    write LOCPOT, Hartree potential only
   LELF         =      F    write electronic localiz. function (ELF)
   LORBIT       =      0    0 simple, 1 ext, 2 COOP (PROOUT), +10 PAW based schemes


 Dipole corrections
   LMONO  =      F    monopole corrections only (constant potential shift)
   LDIPOL =      F    correct potential (dipole corrections)
   IDIPOL =      3    1-x, 2-y, 3-z, 4-all directions 
   EPSILON=  1.0000000 bulk dielectric constant

 LDA+U is selected, type is set to LDAUTYPE =  2
   angular momentum for each species LDAUL =     2   -1   -1   -1
   U (eV)           for each species LDAUU =   4.0  0.0  0.0  0.0
   J (eV)           for each species LDAUJ =   0.0  0.0  0.0  0.0
 Exchange correlation treatment:
   GGA     =    --    GGA type
   LEXCH   =     8    internal setting for exchange type
   VOSKOWN=      0    Vosko Wilk Nusair interpolation
   LHFCALC =     F    Hartree Fock is set to
   LHFONE  =     F    Hartree Fock one center treatment
   AEXX    =    0.0000 exact exchange contribution

 Linear response parameters
   LEPSILON=     F    determine dielectric tensor
   LRPA    =     F    only Hartree local field effects (RPA)
   LNABLA  =     F    use nabla operator in PAW spheres
   LVEL    =     F    velocity operator in full k-point grid
   LINTERFAST=   F  fast interpolation
   KINTER  =     0    interpolate to denser k-point grid
   CSHIFT  =0.1000    complex shift for real part using Kramers Kronig
   OMEGAMAX=  -1.0    maximum frequency
   DEG_THRESHOLD= 0.2000000E-02 threshold for treating states as degnerate
   RTIME   =   -0.100 relaxation time in fs
  (WPLASMAI=    0.000 imaginary part of plasma frequency in eV, 0.658/RTIME)
   DFIELD  = 0.0000000 0.0000000 0.0000000 field for delta impulse in time
 
 Orbital magnetization related:
   ORBITALMAG=     F  switch on orbital magnetization
   LCHIMAG   =     F  perturbation theory with respect to B field
   DQ        =  0.001000  dq finite difference perturbation B field
   LLRAUG    =     F  two centre corrections for induced B field



--------------------------------------------------------------------------------------------------------


 Static calculation
 charge density and potential will be updated during run
 spin polarized calculation
 Variant of blocked Davidson
 Davidson routine will perform the subspace rotation
 perform sub-space diagonalisation
    after iterative eigenvector-optimisation
 modified Broyden-mixing scheme, WC =      100.0
 initial mixing is a Kerker type mixing with AMIX =  0.4000 and BMIX =      1.0000
 Hartree-type preconditioning will be used
 using additional bands           42
 real space projection scheme for non local part
 use partial core corrections
 calculate Harris-corrections to forces 
   (improved forces if not selfconsistent)
 use gradient corrections 
 use of overlap-Matrix (Vanderbilt PP)
 Gauss-broadening in eV      SIGMA  =   0.05


--------------------------------------------------------------------------------------------------------


  energy-cutoff  :      500.00
  volume of cell :     4400.27
      direct lattice vectors                 reciprocal lattice vectors
    15.110600471  0.000000000  0.000000000     0.066178707  0.005884289  0.000000000
    -1.080094632 12.147476386  0.000000000     0.000000000  0.082321625  0.000000000
     0.000000000  0.000000000 23.972400665     0.000000000  0.000000000  0.041714637

  length of vectors
    15.110600471 12.195400238 23.972400665     0.066439793  0.082321625  0.041714637


 
 old parameters found on file WAVECAR:
  energy-cutoff  :      500.00
  volume of cell :     4400.27
      direct lattice vectors                 reciprocal lattice vectors
    15.110600471  0.000000000  0.000000000     0.066178707  0.005884289  0.000000000
    -1.080094632 12.147476386  0.000000000     0.000000000  0.082321625  0.000000000
     0.000000000  0.000000000 23.972400665     0.000000000  0.000000000  0.041714637

  length of vectors

 
 k-points in units of 2pi/SCALE and weight: Monkhorst Pack                          
   0.01654468  0.02205148  0.00000000       0.500
  -0.01654468  0.01910933  0.00000000       0.500
 
 k-points in reciprocal lattice and weights: Monkhorst Pack                          
   0.25000000  0.25000000  0.00000000       0.500
  -0.25000000  0.25000000  0.00000000       0.500
 
 position of ions in fractional coordinates (direct lattice) 
   0.08848000  0.32082999  0.03824000
   0.33847998  0.82083000  0.03824000
   0.58847999  0.32082999  0.03824000
   0.83848001  0.82083000  0.03824000
   0.07020001  0.83354995  0.04873000
   0.32019998  0.33355000  0.04873000
   0.57020004  0.83354995  0.04873000
   0.82020001  0.33355000  0.04873000
   0.23783000  0.06778000  0.05703000
   0.48783004  0.56778001  0.05703000
   0.73783001  0.06778000  0.05703000
   0.98782997  0.56778001  0.05703000
   0.21954999  0.58051001  0.06752000
   0.46955000  0.08051000  0.06752000
   0.71954999  0.58051001  0.06752000
   0.96955000  0.08051000  0.06752000
   0.10603080  0.98307902  0.17093466
   0.35631406  0.48382431  0.17110484
   0.60772203  0.98448997  0.17131362
   0.85530786  0.48255483  0.17322385
   0.08935597  0.49488277  0.18245471
   0.33900823  0.99504311  0.18217023
   0.58925679  0.49264121  0.18199417
   0.83881655  0.99583395  0.18266752
   0.00463752  0.23046310  0.19141882
   0.25327372  0.73000372  0.19123837
   0.50391852  0.22891106  0.19081869
   0.75739257  0.73043670  0.19083598
   0.23960784  0.24205740  0.20071537
   0.48805995  0.74310592  0.19989524
   0.74112911  0.24560347  0.20396583
   0.98902345  0.74057957  0.20181961
   0.12323260  0.64132330  0.31413560
   0.37141521  0.13952556  0.31290529
   0.62319075  0.64727901  0.30467615
   0.87428073  0.13946211  0.31395904
   0.10971521  0.16116359  0.31240296
   0.35819050  0.65971914  0.31267497
   0.60589890  0.15782580  0.31361315
   0.85931129  0.66231228  0.31743531
   0.02695190  0.88930114  0.32428638
   0.27545330  0.38858674  0.32533384
   0.52447263  0.88679261  0.32498053
   0.78190444  0.38295973  0.33411335
   0.01118354  0.40728362  0.33551800
   0.25880434  0.90678497  0.33612452
   0.50705707  0.39999545  0.33401932
   0.75956192  0.90801651  0.33629453
   0.69821097  0.55119947  0.42093434
   0.02440000  0.17254999  0.00000000
   0.27439999  0.67255002  0.00000000
   0.52439999  0.17254999  0.00000000
   0.77439999  0.67255002  0.00000000
   0.21455000  0.43156997  0.01581000
   0.46455001  0.93156996  0.01581000
   0.71455008  0.43156997  0.01581000
   0.96455004  0.93156996  0.01581000
   0.20673000  0.89092997  0.02490000
   0.45673000  0.39092998  0.02490000
   0.70672997  0.89092997  0.02490000
   0.95673004  0.39092998  0.02490000
   0.19748000  0.22610000  0.04418000
   0.44748002  0.72610003  0.04418000
   0.69748003  0.22610000  0.04418000
   0.94747999  0.72610003  0.04418000
   0.11054000  0.67523994  0.06158000
   0.36054002  0.17523999  0.06158000
   0.61053998  0.67523994  0.06158000
   0.86053999  0.17523999  0.06158000
   0.10129000  0.01041000  0.08086000
   0.35129000  0.51041000  0.08086000
   0.60128998  0.01041000  0.08086000
   0.85128994  0.51041000  0.08086000
   0.09348000  0.46976000  0.08995000
   0.34348000  0.96975995  0.08995000
   0.59348001  0.46976000  0.08995000
   0.84347996  0.96975995  0.08995000
   0.03362000  0.22878000  0.10576000
   0.28361999  0.72877998  0.10576000
   0.53361997  0.22878000  0.10576000
   0.78362002  0.72877998  0.10576000
   0.04540752  0.83319093  0.13357270
   0.29649902  0.33387374  0.13351841
   0.54646914  0.83393002  0.13346691
   0.79607474  0.33271731  0.13409663
   0.23141602  0.09343069  0.14618337
   0.48164600  0.59348641  0.14668686
   0.73175361  0.09377725  0.14692159
   0.98158669  0.59336756  0.14688081
   0.22573413  0.55227683  0.16048736
   0.47625117  0.05115557  0.16070393
   0.72508502  0.55220961  0.16060831
   0.97522533  0.05250201  0.16083412
   0.21498403  0.89026542  0.18099236
   0.46454509  0.38964552  0.18087835
   0.71504038  0.88953971  0.18117873
   0.96519652  0.39062677  0.18234010
   0.12986498  0.33499646  0.19225074
   0.37904120  0.83515534  0.19316481
   0.62825605  0.33478404  0.19380025
   0.87983151  0.83664837  0.19373477
   0.11769011  0.67135663  0.21401192
   0.36703120  0.16944462  0.21282630
   0.61852078  0.67101706  0.21374665
   0.86791449  0.17075669  0.21606649
   0.11564073  0.13045298  0.22388188
   0.36415387  0.63125245  0.22399142
   0.61525885  0.13154160  0.22506091
   0.86415048  0.63223977  0.22467827
   0.04737739  0.89346072  0.23976811
   0.29687479  0.39586922  0.24057854
   0.54729882  0.89342396  0.24018853
   0.79552302  0.39428677  0.24129536
   0.07075249  0.49252587  0.26873271
   0.31478087  0.99220377  0.26829383
   0.56271048  0.49367152  0.26865785
   0.81116091  0.99416486  0.26848154
   0.25102216  0.75016225  0.28257950
   0.49717324  0.24938426  0.28104485
   0.75020762  0.74941946  0.28278352
   0.00512811  0.25126275  0.28141962
   0.24579980  0.21413675  0.29102066
   0.49432641  0.71227586  0.29042057
   0.74396167  0.21576938  0.29638022
   0.99508703  0.71169285  0.29262195
   0.23935517  0.55444957  0.32968864
   0.48594523  0.05172615  0.32673504
   0.73231536  0.55317941  0.32733118
   0.98953030  0.05560346  0.32814041
   0.14720892  0.00397114  0.33081004
   0.39850918  0.50466161  0.33373662
   0.64332170  0.99992525  0.33383612
   0.89674793  0.50036539  0.32711693
   0.13751935  0.32132443  0.35129246
   0.38585945  0.81920083  0.35110267
   0.61745179  0.31005092  0.35441447
   0.89021165  0.83415237  0.34543336
   0.13194803  0.79976764  0.35628955
   0.38059029  0.29892870  0.35519671
   0.62888901  0.79312208  0.35509029
   0.89075939  0.29445428  0.35574281
   0.06545219  0.54429665  0.37463925
   0.31620425  0.04265361  0.37450755
   0.57703131  0.54065763  0.37780575
   0.81604575  0.04233179  0.37491662
   0.81201437  0.66662397  0.40514461
   0.75609906  0.41625187  0.41777519
   0.78396711  0.76706285  0.50728805
   0.55052127  0.67753768  0.54947169
   0.69105792  0.80330262  0.46756295
   0.53789868  0.54903194  0.51447433
   0.53861701  0.67296649  0.47594265
   0.69885916  0.59605287  0.54118589
   0.83791255  0.72205837  0.43087437
   0.68756065  0.80518658  0.54113584
   0.56973486  0.63371131  0.51151635
   0.71074762  0.75868930  0.50512266
   0.67156678  0.63790759  0.50492279
 
 position of ions in cartesian coordinates  (Angst):
   0.99045921  3.89727473  0.91670460
   4.22806168  9.97101307  0.91670460
   8.54575920  3.89727473  0.91670460
  11.78336239  9.97101307  0.91670460
   0.16045142 10.12552833  1.16817511
   4.47814847  4.05179071  1.16817511
   7.71575212 10.12552833  1.16817511
  12.03344917  4.05179071  1.16817511
   3.52054525  0.82335597  1.36714601
   6.75814868  6.89709425  1.36714601
  11.07584571  0.82335597  1.36714601
  14.31344795  6.89709425  1.36714601
   2.69052649  7.05173159  1.61861647
   7.00822400  0.97799331  1.61861647
  10.24582672  7.05173159  1.61861647
  14.56352424  0.97799331  1.61861647
   0.54037075 11.94192917  4.09771405
   4.86154328  5.87724444  4.10179371
   8.11970242 11.95906864  4.10679869
  12.40301043  5.86182338  4.15259162
   0.81570219  6.01157679  4.37387745
   4.04787716 12.08726265  4.36705773
   8.37192478  5.98434748  4.36283704
  11.59942681 12.09686940  4.37897890
  -0.17884625  2.79954506  4.58876876
   3.03864486  8.86770291  4.58444285
   7.36726586  2.78069169  4.57438201
  10.65571582  8.87296251  4.57479652
   3.35917341  2.94038656  4.81162926
   6.57225427  9.02686159  4.79196890
  10.93363097  2.98346233  4.88955054
  14.14484219  8.99617279  4.83810055
   1.16942872  7.79045964  7.53058446
   5.46160600  1.69488348  7.50109093
   8.71766384  7.86280650  7.30381872
  13.06027449  1.69411268  7.52635179
   1.48379071  1.95773094  7.48904900
   4.69991436  8.01392269  7.49556958
   8.98502942  1.91718512  7.51806007
  12.26934959  8.04542283  7.60968633
  -0.55326997 10.80276465  7.77392311
   3.74255431  4.72034830  7.79903321
   6.96727640 10.77229234  7.79056341
  11.40141284  4.65199429  8.00949901
  -0.27091491  4.94746816  8.04317183
   2.93127543 11.01514903  8.05771165
   7.22990393  4.85893527  8.00724496
  10.49669299 11.03010907  8.06178727
   9.95503945  6.69568249 10.09080677
   0.18232835  2.09604693  0.00000000
   3.41993094  8.16978550  0.00000000
   7.73762846  2.09604693  0.00000000
  10.97523117  8.16978550  0.00000000
   2.77584291  5.24248600  0.37900365
   6.01344586 11.31622410  0.37900365
  10.33114434  5.24248600  0.37900365
  13.56874656 11.31622410  0.37900365
   2.16152573 10.82255077  0.59691280
   6.47922326  4.74881268  0.59691280
   9.71682548 10.82255077  0.59691280
  14.03452396  4.74881268  0.59691280
   2.73983193  2.74654436  1.05910064
   5.97743511  8.82028293  1.05910064
  10.29513263  2.74654436  1.05910064
  13.53273487  8.82028293  1.05910064
   0.94100273  8.20246124  1.47622036
   5.25870037  2.12872362  1.47622036
   8.49630260  8.20246124  1.47622036
  12.81400013  2.12872362  1.47622036
   1.51930892  0.12645522  1.93840825
   4.75691175  6.20019341  1.93840825
   9.07460880  0.12645522  1.93840825
  12.31221104  6.20019341  1.93840825
   0.90515363  5.70639848  2.15631746
   4.14275646 11.78013610  2.15631746
   8.46045399  5.70639848  2.15631746
  11.69805622 11.78013610  2.15631746
   0.26091433  2.77909971  2.53532100
   3.49851704  8.85283756  2.53532100
   7.81621408  2.77909971  2.53532100
  11.05381775  8.85283756  2.53532100
  -0.21379015 10.12116719  3.20205823
   4.11966300  4.05572342  3.20075684
   7.35675344 10.13014525  3.19952231
  11.66980109  4.04167568  3.21461806
   3.39592099  1.13494712  3.50436622
   6.63693885  7.20936210  3.51643626
  10.95594807  1.13915688  3.52206321
  14.19147126  7.20791838  3.52108561
   2.81446706  6.70876975  3.84726730
   7.14118824  0.62141107  3.85245906
  10.36003138  6.70795314  3.85016671
  14.67953314  0.63776698  3.85557994
   2.28696682 10.81447820  4.33882142
   6.59870130  4.73320971  4.33608834
   9.84390239 10.80566265  4.34328905
  14.16278512  4.74512947  4.37112994
   1.60050996  4.06936155  4.60871181
   4.82549328 10.14502977  4.63062425
   9.13172778  4.06678117  4.64585726
  12.39112303 10.16316627  4.64428750
   1.05323949  8.15528878  5.13037956
   5.36304565  2.05832448  5.10195742
   8.62145853  8.15116389  5.12402040
  12.93027577  2.07426284  5.17963236
   1.60649933  1.58467448  5.36698604
   4.82077130  7.66812418  5.36961218
   9.15485328  1.59789851  5.39525028
  12.37495386  7.68011767  5.38607762
  -0.24912129 10.85329299  5.74781719
   4.05838014  4.80881202  5.76724507
   7.30503134 10.85284644  5.75789569
  11.59496356  4.78958919  5.78442899
   0.53713802  5.98294632  6.44216819
   3.68485405 12.05277188  6.43164708
   7.96968123  5.99686313  6.44037358
  11.18333635 12.07659417  6.43614712
   2.98284932  9.11257820  6.77410894
   7.24322763  3.02938945  6.73731969
  10.52664374  9.10355525  6.77899978
  -0.19389880  3.05220838  6.74630378
   3.48289466  2.60122116  6.97646383
   6.70024361  8.65235424  6.96207825
  11.00865616  2.62105339  7.10494540
  14.26766695  8.64527204  7.01485068
   3.01794233  6.73516311  7.90342825
   7.28705511  0.62834216  7.83262331
  10.46823878  6.71973386  7.84691411
  14.89234008  0.67544176  7.86631328
   2.22012599  0.04823935  7.93031094
   5.47663065  6.13036504  8.00046808
   8.64096333 12.14656833  8.00285325
  13.00995766  6.07817673  7.84177819
   1.73093912  3.90328096  8.42132372
   4.94575353  9.95122279  8.41677388
   8.99518299  3.76633618  8.49616579
  12.55066906 10.13284619  8.28086680
   1.12998929  9.71515851  8.54111595
   5.42807649  3.63122929  8.51491782
   8.64624362  9.63443174  8.51236661
  13.14187076  3.57687646  8.52800917
   0.40113002  6.61183076  8.98100221
   4.73196614  0.51813366  8.97784509
   8.13532824  6.56762585  9.05691085
  12.28521900  0.51422437  8.98765134
  11.55000770  8.09779896  9.71228884
  10.97551937  5.05640980 10.01507416
  11.01771336  9.31787789 12.16091228
   7.58690222  8.23037296 13.17215554
   9.57465723  9.75809965 11.20860647
   7.53496555  6.66935254 12.33318475
   7.41195891  8.17484458 11.40948792
   9.91638807  7.24053812 12.97352510
  11.88147037  8.77118701 10.32909297
   9.51977653  9.78098497 12.97232518
   7.92456762  7.69799317 12.26227483
   9.92036701  9.21616032 12.10900287
   9.45877676  7.74896744 12.10421146
 


--------------------------------------------------------------------------------------------------------


 k-point  1 :   0.2500 0.2500 0.0000  plane waves:  111683
 k-point  2 :  -0.2500 0.2500 0.0000  plane waves:  111725

 maximum and minimum number of plane-waves per node :     18644    18587

 maximum number of plane-waves:    111725
 maximum index in each direction: 
   IXMAX=   27   IYMAX=   21   IZMAX=   43
   IXMIN=  -27   IYMIN=  -22   IZMIN=  -43


 real space projection operators:
  total allocation   :      22023.24 KBytes
  max/ min on nodes  :       3678.46       3663.79


 parallel 3D FFT for wavefunctions:
    minimum data exchange during FFTs selected (reduces bandwidth)
 parallel 3D FFT for charge:
    minimum data exchange during FFTs selected (reduces bandwidth)


 total amount of memory used by VASP MPI-rank0   174550. kBytes
=======================================================================

   base      :      30000. kBytes
   nonlr-proj:      11334. kBytes
   fftplans  :       9317. kBytes
   grid      :      26149. kBytes
   one-center:        839. kBytes
   wavefun   :      96911. kBytes
 
     INWAV:  cpu time    8.2139: real time    8.3443
 Broyden mixing: mesh for mixing (old mesh)
   NGX = 55   NGY = 45   NGZ = 87
  (NGX  =168   NGY  =140   NGZ  =280)
  gives a total of 215325 points

 initial charge density was supplied:
 number of electron    1196.0000051 magnetization       0.0000000
 keeping initial charge density in first step


--------------------------------------------------------------------------------------------------------


 Maximum index for non-local projection operator          433
 Maximum index for augmentation-charges          476 (set IRDMAX)


--------------------------------------------------------------------------------------------------------


 First call to EWALD:  gamma=   0.108
 Maximum number of real-space cells 3x 4x 2
 Maximum number of reciprocal cells 3x 2x 4

    FEWALD:  cpu time    0.0049: real time    0.0049


--------------------------------------- Iteration      1(   1)  ---------------------------------------


    POTLOK:  cpu time    0.2227: real time    0.2239
    SETDIJ:  cpu time    0.0220: real time    0.0220
     EDDAV:  cpu time   27.7477: real time   27.8213
       DOS:  cpu time    0.0006: real time    0.0006
    CHARGE:  cpu time    1.2026: real time    1.2059
    MIXING:  cpu time    0.0066: real time    0.0068
    --------------------------------------------
      LOOP:  cpu time   29.2022: real time   29.2805

 eigenvalue-minimisations  :  6304
 total energy-change (2. order) :-0.1329005E+04  (-0.1311473E+00)
 number of electron    1196.0000051 magnetization       0.0000000
 augmentation part       73.6057941 magnetization       0.0000000

 Broyden mixing:
  rms(total) = 0.95359E-01    rms(broyden)= 0.95280E-01
  rms(prec ) = 0.96577E-01
  weight for this iteration     100.00

 Free energy of the ion-electron system (eV)
  ---------------------------------------------------
  alpha Z        PSCENC =      2113.54737298
  Ewald energy   TEWEN  =    392960.08578686
  -Hartree energ DENC   =   -489388.69285689
  -exchange      EXHF   =         0.00000000
  -V(xc)+E(xc)   XCENC  =      5279.30328403
  PAW double counting   =    128958.67747814  -128278.63627174
  entropy T*S    EENTRO =        -0.00000000
  eigenvalues    EBANDS =    -18812.19182980
  atomic energy  EATOM  =    105838.90241102
  Solvation  Ediel_sol  =         0.00000000
  ---------------------------------------------------
  free energy    TOTEN  =     -1329.00462541 eV

  energy without entropy =    -1329.00462541  energy(sigma->0) =    -1329.00462541


--------------------------------------------------------------------------------------------------------




--------------------------------------- Iteration      1(   2)  ---------------------------------------


    POTLOK:  cpu time    0.2174: real time    0.2184
    SETDIJ:  cpu time    0.0217: real time    0.0219
     EDDAV:  cpu time   27.6286: real time   27.7013
       DOS:  cpu time    0.0006: real time    0.0006
    CHARGE:  cpu time    1.2132: real time    1.2163
    MIXING:  cpu time    0.0063: real time    0.0064
    --------------------------------------------
      LOOP:  cpu time   29.0879: real time   29.1649

 eigenvalue-minimisations  :  6144
 total energy-change (2. order) :-0.1754671E+01  (-0.1169836E+00)
 number of electron    1196.0000051 magnetization       0.0000000
 augmentation part       73.5323286 magnetization       0.0000000

 Broyden mixing:
  rms(total) = 0.40601E-01    rms(broyden)= 0.40485E-01
  rms(prec ) = 0.42677E-01
  weight for this iteration     100.00

 eigenvalues of (default mixing * dielectric matrix)
  average eigenvalue GAMMA=   0.7373
  0.7373

 Free energy of the ion-electron system (eV)
  ---------------------------------------------------
  alpha Z        PSCENC =      2113.54737298
  Ewald energy   TEWEN  =    392960.08578686
  -Hartree energ DENC   =   -489389.80744039
  -exchange      EXHF   =         0.00000000
  -V(xc)+E(xc)   XCENC  =      5279.39563852
  PAW double counting   =    128814.06431890  -128132.96681597
  entropy T*S    EENTRO =        -0.00000000
  eigenvalues    EBANDS =    -18813.98056795
  atomic energy  EATOM  =    105838.90241102
  Solvation  Ediel_sol  =         0.00000000
  ---------------------------------------------------
  free energy    TOTEN  =     -1330.75929604 eV

  energy without entropy =    -1330.75929604  energy(sigma->0) =    -1330.75929604


--------------------------------------------------------------------------------------------------------




--------------------------------------- Iteration      1(   3)  ---------------------------------------


    POTLOK:  cpu time    0.2138: real time    0.2152
    SETDIJ:  cpu time    0.0214: real time    0.0215
     EDDAV:  cpu time   29.6787: real time   29.7555
       DOS:  cpu time    0.0010: real time    0.0007
    CHARGE:  cpu time    1.2098: real time    1.2130
    MIXING:  cpu time    0.0063: real time    0.0063
    --------------------------------------------
      LOOP:  cpu time   31.1310: real time   31.2122

 eigenvalue-minimisations  :  6720
 total energy-change (2. order) :-0.9895435E-02  (-0.4113569E-02)
 number of electron    1196.0000051 magnetization       0.0000000
 augmentation part       73.5629927 magnetization       0.0000000

 Broyden mixing:
  rms(total) = 0.27634E-01    rms(broyden)= 0.27616E-01
  rms(prec ) = 0.28052E-01
  weight for this iteration     100.00

 eigenvalues of (default mixing * dielectric matrix)
  average eigenvalue GAMMA=   0.6944
  0.6944  0.6944

 Free energy of the ion-electron system (eV)
  ---------------------------------------------------
  alpha Z        PSCENC =      2113.54737298
  Ewald energy   TEWEN  =    392960.08578686
  -Hartree energ DENC   =   -489387.39907629
  -exchange      EXHF   =         0.00000000
  -V(xc)+E(xc)   XCENC  =      5279.20464081
  PAW double counting   =    128842.01743955  -128160.17513106
  entropy T*S    EENTRO =        -0.00000000
  eigenvalues    EBANDS =    -18816.95263532
  atomic energy  EATOM  =    105838.90241102
  Solvation  Ediel_sol  =         0.00000000
  ---------------------------------------------------
  free energy    TOTEN  =     -1330.76919148 eV

  energy without entropy =    -1330.76919148  energy(sigma->0) =    -1330.76919148


--------------------------------------------------------------------------------------------------------




--------------------------------------- Iteration      1(   4)  ---------------------------------------


    POTLOK:  cpu time    0.2139: real time    0.2152
    SETDIJ:  cpu time    0.0214: real time    0.0215
     EDDAV:  cpu time   25.9831: real time   26.0477
       DOS:  cpu time    0.0006: real time    0.0006
    CHARGE:  cpu time    1.2034: real time    1.2063
    MIXING:  cpu time    0.0066: real time    0.0066
    --------------------------------------------
      LOOP:  cpu time   27.4291: real time   27.4980

 eigenvalue-minimisations  :  5664
 total energy-change (2. order) :-0.3579968E-04  (-0.2090822E-03)
 number of electron    1196.0000051 magnetization       0.0000000
 augmentation part       73.5591843 magnetization       0.0000000

 Broyden mixing:
  rms(total) = 0.22386E-01    rms(broyden)= 0.22385E-01
  rms(prec ) = 0.22688E-01
  weight for this iteration     100.00

 eigenvalues of (default mixing * dielectric matrix)
  average eigenvalue GAMMA=   0.6878
  0.7743  0.7743  0.5149

 Free energy of the ion-electron system (eV)
  ---------------------------------------------------
  alpha Z        PSCENC =      2113.54737298
  Ewald energy   TEWEN  =    392960.08578686
  -Hartree energ DENC   =   -489388.14171288
  -exchange      EXHF   =         0.00000000
  -V(xc)+E(xc)   XCENC  =      5279.27114377
  PAW double counting   =    128871.21136958  -128189.31388679
  entropy T*S    EENTRO =        -0.00000000
  eigenvalues    EBANDS =    -18816.33171181
  atomic energy  EATOM  =    105838.90241102
  Solvation  Ediel_sol  =         0.00000000
  ---------------------------------------------------
  free energy    TOTEN  =     -1330.76922728 eV

  energy without entropy =    -1330.76922728  energy(sigma->0) =    -1330.76922728


--------------------------------------------------------------------------------------------------------




--------------------------------------- Iteration      1(   5)  ---------------------------------------


    POTLOK:  cpu time    0.2129: real time    0.2173
    SETDIJ:  cpu time    0.0214: real time    0.0215
     EDDAV:  cpu time   29.6723: real time   29.7776
       DOS:  cpu time    0.0006: real time    0.0006
    CHARGE:  cpu time    1.2122: real time    1.2151
    MIXING:  cpu time    0.0067: real time    0.0067
    --------------------------------------------
      LOOP:  cpu time   31.1260: real time   31.2387

 eigenvalue-minimisations  :  6720
 total energy-change (2. order) :-0.6971546E-05  (-0.2049845E-04)
 number of electron    1196.0000051 magnetization       0.0000000
 augmentation part       73.5650712 magnetization       0.0000000

 Broyden mixing:
  rms(total) = 0.18832E-01    rms(broyden)= 0.18832E-01
  rms(prec ) = 0.19087E-01
  weight for this iteration     100.00

 eigenvalues of (default mixing * dielectric matrix)
  average eigenvalue GAMMA=   0.7295
  0.9102  0.9102  0.5488  0.5488

 Free energy of the ion-electron system (eV)
  ---------------------------------------------------
  alpha Z        PSCENC =      2113.54737298
  Ewald energy   TEWEN  =    392960.08578686
  -Hartree energ DENC   =   -489388.20695091
  -exchange      EXHF   =         0.00000000
  -V(xc)+E(xc)   XCENC  =      5279.27511903
  PAW double counting   =    128889.10001960  -128207.16552879
  entropy T*S    EENTRO =        -0.00000000
  eigenvalues    EBANDS =    -18816.30746402
  atomic energy  EATOM  =    105838.90241102
  Solvation  Ediel_sol  =         0.00000000
  ---------------------------------------------------
  free energy    TOTEN  =     -1330.76923425 eV

  energy without entropy =    -1330.76923425  energy(sigma->0) =    -1330.76923425


--------------------------------------------------------------------------------------------------------




--------------------------------------- Iteration      1(   6)  ---------------------------------------


    POTLOK:  cpu time    0.2126: real time    0.2132
    SETDIJ:  cpu time    0.0214: real time    0.0214
     EDDAV:  cpu time   30.0700: real time   30.1500
       DOS:  cpu time    0.0006: real time    0.0006
    CHARGE:  cpu time    1.2083: real time    1.2112
    MIXING:  cpu time    0.0070: real time    0.0070
    --------------------------------------------
      LOOP:  cpu time   31.5198: real time   31.6035

 eigenvalue-minimisations  :  6848
 total energy-change (2. order) :-0.1274182E-04  (-0.2376005E-05)
 number of electron    1196.0000051 magnetization       0.0000000
 augmentation part       73.5666904 magnetization       0.0000000

 Broyden mixing:
  rms(total) = 0.16251E-01    rms(broyden)= 0.16251E-01
  rms(prec ) = 0.16481E-01
  weight for this iteration     100.00

 eigenvalues of (default mixing * dielectric matrix)
  average eigenvalue GAMMA=   0.7991
  1.1321  1.1321  0.5237  0.6038  0.6038

 Free energy of the ion-electron system (eV)
  ---------------------------------------------------
  alpha Z        PSCENC =      2113.54737298
  Ewald energy   TEWEN  =    392960.08578686
  -Hartree energ DENC   =   -489388.34924525
  -exchange      EXHF   =         0.00000000
  -V(xc)+E(xc)   XCENC  =      5279.28334100
  PAW double counting   =    128903.58455785  -128221.63796598
  entropy T*S    EENTRO =        -0.00000000
  eigenvalues    EBANDS =    -18816.18550547
  atomic energy  EATOM  =    105838.90241102
  Solvation  Ediel_sol  =         0.00000000
  ---------------------------------------------------
  free energy    TOTEN  =     -1330.76924699 eV

  energy without entropy =    -1330.76924699  energy(sigma->0) =    -1330.76924699


--------------------------------------------------------------------------------------------------------




--------------------------------------- Iteration      1(   7)  ---------------------------------------


    POTLOK:  cpu time    0.2123: real time    0.2130
    SETDIJ:  cpu time    0.0214: real time    0.0215
     EDDAV:  cpu time   29.0525: real time   29.1315
       DOS:  cpu time    0.0006: real time    0.0006
    CHARGE:  cpu time    1.2067: real time    1.2096
    MIXING:  cpu time    0.0075: real time    0.0075
    --------------------------------------------
      LOOP:  cpu time   30.5011: real time   30.5838

 eigenvalue-minimisations  :  6528
 total energy-change (2. order) :-0.8119416E-05  (-0.2328689E-05)
 number of electron    1196.0000051 magnetization       0.0000000
 augmentation part       73.5677364 magnetization       0.0000000

 Broyden mixing:
  rms(total) = 0.12990E-01    rms(broyden)= 0.12990E-01
  rms(prec ) = 0.13171E-01
  weight for this iteration     100.00

 eigenvalues of (default mixing * dielectric matrix)
  average eigenvalue GAMMA=   0.8543
  1.3366  1.3366  0.6808  0.6808  0.5455  0.5455

 Free energy of the ion-electron system (eV)
  ---------------------------------------------------
  alpha Z        PSCENC =      2113.54737298
  Ewald energy   TEWEN  =    392960.08578686
  -Hartree energ DENC   =   -489388.40780227
  -exchange      EXHF   =         0.00000000
  -V(xc)+E(xc)   XCENC  =      5279.28867572
  PAW double counting   =    128920.95262029  -128238.99358835
  entropy T*S    EENTRO =        -0.00000000
  eigenvalues    EBANDS =    -18816.14473135
  atomic energy  EATOM  =    105838.90241102
  Solvation  Ediel_sol  =         0.00000000
  ---------------------------------------------------
  free energy    TOTEN  =     -1330.76925511 eV

  energy without entropy =    -1330.76925511  energy(sigma->0) =    -1330.76925511


--------------------------------------------------------------------------------------------------------




--------------------------------------- Iteration      1(   8)  ---------------------------------------


    POTLOK:  cpu time    0.2131: real time    0.2159
    SETDIJ:  cpu time    0.0215: real time    0.0216
     EDDAV:  cpu time   27.5056: real time   27.5815
       DOS:  cpu time    0.0010: real time    0.0006
    CHARGE:  cpu time    1.2024: real time    1.2057
    MIXING:  cpu time    0.0077: real time    0.0077
    --------------------------------------------
      LOOP:  cpu time   28.9513: real time   29.0330

 eigenvalue-minimisations  :  6080
 total energy-change (2. order) :-0.5858208E-05  (-0.1652862E-05)
 number of electron    1196.0000051 magnetization       0.0000000
 augmentation part       73.5692581 magnetization       0.0000000

 Broyden mixing:
  rms(total) = 0.10701E-01    rms(broyden)= 0.10701E-01
  rms(prec ) = 0.10843E-01
  weight for this iteration     100.00

 eigenvalues of (default mixing * dielectric matrix)
  average eigenvalue GAMMA=   0.9078
  1.5667  1.5667  0.7636  0.7636  0.5310  0.5816  0.5816

 Free energy of the ion-electron system (eV)
  ---------------------------------------------------
  alpha Z        PSCENC =      2113.54737298
  Ewald energy   TEWEN  =    392960.08578686
  -Hartree energ DENC   =   -489388.45262259
  -exchange      EXHF   =         0.00000000
  -V(xc)+E(xc)   XCENC  =      5279.29191458
  PAW double counting   =    128933.30308060  -128251.33434596
  entropy T*S    EENTRO =        -0.00000000
  eigenvalues    EBANDS =    -18816.11285845
  atomic energy  EATOM  =    105838.90241102
  Solvation  Ediel_sol  =         0.00000000
  ---------------------------------------------------
  free energy    TOTEN  =     -1330.76926097 eV

  energy without entropy =    -1330.76926097  energy(sigma->0) =    -1330.76926097


--------------------------------------------------------------------------------------------------------




--------------------------------------- Iteration      1(   9)  ---------------------------------------


    POTLOK:  cpu time    0.2133: real time    0.2140
    SETDIJ:  cpu time    0.0213: real time    0.0214
     EDDAV:  cpu time   20.8605: real time   20.9163
       DOS:  cpu time    0.0007: real time    0.0006
    CHARGE:  cpu time    1.1911: real time    1.1939
    MIXING:  cpu time    0.0080: real time    0.0080
    --------------------------------------------
      LOOP:  cpu time   22.2950: real time   22.3543

 eigenvalue-minimisations  :  4192
 total energy-change (2. order) :-0.4700880E-05  (-0.4459327E-06)
 number of electron    1196.0000051 magnetization       0.0000000
 augmentation part       73.5701242 magnetization       0.0000000

 Broyden mixing:
  rms(total) = 0.91618E-02    rms(broyden)= 0.91618E-02
  rms(prec ) = 0.92863E-02
  weight for this iteration     100.00

 eigenvalues of (default mixing * dielectric matrix)
  average eigenvalue GAMMA=   1.0569
  2.0788  2.0788  0.9151  0.9151  0.6585  0.6585  0.5752  0.5752

 Free energy of the ion-electron system (eV)
  ---------------------------------------------------
  alpha Z        PSCENC =      2113.54737298
  Ewald energy   TEWEN  =    392960.08578686
  -Hartree energ DENC   =   -489388.47793842
  -exchange      EXHF   =         0.00000000
  -V(xc)+E(xc)   XCENC  =      5279.29335414
  PAW double counting   =    128941.68271056  -128259.71192358
  entropy T*S    EENTRO =        -0.00000000
  eigenvalues    EBANDS =    -18816.09103923
  atomic energy  EATOM  =    105838.90241102
  Solvation  Ediel_sol  =         0.00000000
  ---------------------------------------------------
  free energy    TOTEN  =     -1330.76926567 eV

  energy without entropy =    -1330.76926567  energy(sigma->0) =    -1330.76926567


--------------------------------------------------------------------------------------------------------




--------------------------------------- Iteration      1(  10)  ---------------------------------------


    POTLOK:  cpu time    0.2132: real time    0.2138
    SETDIJ:  cpu time    0.0213: real time    0.0214
     EDDAV:  cpu time   28.6736: real time   28.7500
       DOS:  cpu time    0.0006: real time    0.0006
    CHARGE:  cpu time    1.1960: real time    1.1989
    MIXING:  cpu time    0.0084: real time    0.0084
    --------------------------------------------
      LOOP:  cpu time   30.1132: real time   30.1930

 eigenvalue-minimisations  :  6432
 total energy-change (2. order) :-0.5913724E-05  (-0.2515000E-05)
 number of electron    1196.0000051 magnetization      -0.0000000
 augmentation part       73.5713585 magnetization       0.0000000

 Broyden mixing:
  rms(total) = 0.54194E-02    rms(broyden)= 0.54193E-02
  rms(prec ) = 0.54969E-02
  weight for this iteration     100.00

 eigenvalues of (default mixing * dielectric matrix)
  average eigenvalue GAMMA=   1.1222
  2.4067  2.4067  1.0632  1.0632  0.6947  0.6947  0.5947  0.5947  0.5810

 Free energy of the ion-electron system (eV)
  ---------------------------------------------------
  alpha Z        PSCENC =      2113.54737298
  Ewald energy   TEWEN  =    392960.08578686
  -Hartree energ DENC   =   -489388.53975913
  -exchange      EXHF   =         0.00000000
  -V(xc)+E(xc)   XCENC  =      5279.29711678
  PAW double counting   =    128961.50655515  -128279.52775647
  entropy T*S    EENTRO =        -0.00000000
  eigenvalues    EBANDS =    -18816.04099876
  atomic energy  EATOM  =    105838.90241102
  Solvation  Ediel_sol  =         0.00000000
  ---------------------------------------------------
  free energy    TOTEN  =     -1330.76927158 eV

  energy without entropy =    -1330.76927158  energy(sigma->0) =    -1330.76927158


--------------------------------------------------------------------------------------------------------




--------------------------------------- Iteration      1(  11)  ---------------------------------------


    POTLOK:  cpu time    0.2130: real time    0.2137
    SETDIJ:  cpu time    0.0214: real time    0.0214
     EDDAV:  cpu time   29.7244: real time   29.8016
       DOS:  cpu time    0.0010: real time    0.0007
    CHARGE:  cpu time    1.2005: real time    1.2037
    MIXING:  cpu time    0.0096: real time    0.0096
    --------------------------------------------
      LOOP:  cpu time   31.1698: real time   31.2508

 eigenvalue-minimisations  :  6720
 total energy-change (2. order) :-0.4547052E-05  (-0.3027316E-05)
 number of electron    1196.0000051 magnetization      -0.0000000
 augmentation part       73.5731310 magnetization       0.0000000

 Broyden mixing:
[...]
   0.311E+02 0.275E+02 -.140E+04   -.348E+02 -.293E+02 0.141E+04   0.372E+01 0.174E+01 -.485E+01   0.177E-03 -.602E-03 -.361E-03
   0.564E+02 0.324E+02 -.135E+04   -.599E+02 -.345E+02 0.136E+04   0.350E+01 0.210E+01 -.388E+01   0.204E-03 -.594E-03 -.202E-03
   -.765E+00 0.744E+02 -.104E+04   0.641E+00 -.784E+02 0.104E+04   0.124E+00 0.401E+01 0.495E+01   0.446E-03 0.247E-03 -.902E-03
   -.156E+02 0.147E+02 -.138E+04   0.130E+02 -.170E+02 0.138E+04   0.263E+01 0.224E+01 -.462E+01   0.191E-03 -.433E-03 -.633E-04
   -.325E+02 -.384E+02 -.138E+04   0.358E+02 0.396E+02 0.139E+04   -.330E+01 -.125E+01 -.305E+01   -.169E-03 0.172E-03 -.561E-03
   0.361E+02 -.215E+02 -.139E+04   -.328E+02 0.224E+02 0.139E+04   -.337E+01 -.909E+00 -.398E+01   -.285E-03 0.102E-03 -.551E-03
   0.493E+00 -.604E+02 -.137E+04   0.334E+01 0.618E+02 0.138E+04   -.382E+01 -.145E+01 -.388E+01   -.119E-03 -.215E-04 -.258E-03
   -.134E+03 -.698E+00 -.120E+04   0.138E+03 0.277E+01 0.120E+04   -.375E+01 -.208E+01 0.363E+00   0.262E-03 0.271E-03 -.506E-03
   -.377E+02 -.435E+01 -.162E+04   0.382E+02 0.780E+01 0.163E+04   -.461E+00 -.344E+01 -.845E+01   0.248E-03 0.557E-04 -.296E-03
   0.284E+02 -.354E+02 -.160E+04   -.279E+02 0.393E+02 0.161E+04   -.493E+00 -.394E+01 -.836E+01   0.351E-03 0.176E-03 -.305E-03
   0.269E+01 0.870E+02 -.155E+04   0.406E+01 -.828E+02 0.156E+04   -.674E+01 -.422E+01 -.104E+02   -.363E-04 -.328E-03 -.202E-03
   -.937E+02 -.111E+03 -.147E+04   0.932E+02 0.115E+03 0.148E+04   0.523E+00 -.340E+01 -.604E+01   0.155E-03 0.191E-03 -.230E-04
   -.424E+02 0.519E+01 -.167E+04   0.441E+02 -.661E+01 0.168E+04   -.166E+01 0.142E+01 -.111E+02   -.459E-03 0.253E-03 -.180E-03
   0.389E+02 0.479E+02 -.166E+04   -.375E+02 -.500E+02 0.167E+04   -.148E+01 0.211E+01 -.113E+02   -.431E-03 0.487E-04 -.287E-03
   0.630E+02 -.817E+02 -.156E+04   -.605E+02 0.814E+02 0.157E+04   -.252E+01 0.266E+00 -.116E+02   -.287E-03 0.350E-03 0.178E-03
   -.106E+03 0.845E+02 -.161E+04   0.109E+03 -.863E+02 0.163E+04   -.295E+01 0.177E+01 -.115E+02   -.557E-04 0.103E-04 0.238E-07
   -.650E+02 -.377E+02 -.181E+04   0.645E+02 0.415E+02 0.183E+04   0.535E+00 -.381E+01 -.184E+02   -.164E-03 -.179E-03 -.610E-03
   0.184E+02 -.464E+02 -.182E+04   -.182E+02 0.503E+02 0.184E+04   -.276E+00 -.394E+01 -.183E+02   -.164E-04 -.126E-03 -.773E-03
   0.259E+03 0.801E+01 -.158E+04   -.268E+03 -.555E+01 0.159E+04   0.990E+01 -.247E+01 -.610E+01   -.536E-03 0.147E-03 -.831E-04
   -.272E+02 -.804E+02 -.179E+04   0.274E+02 0.849E+02 0.181E+04   -.229E+00 -.457E+01 -.184E+02   0.143E-04 -.301E-03 -.479E-03
   -.199E+03 -.119E+03 -.166E+04   0.193E+03 0.101E+03 0.164E+04   0.601E+01 0.175E+02 0.155E+02   0.434E-03 0.657E-03 0.705E-03
   -.130E+03 0.277E+03 -.177E+04   0.137E+03 -.291E+03 0.178E+04   -.751E+01 0.140E+02 -.123E+02   0.228E-03 0.108E-03 0.914E-04
   -.662E+02 -.301E+02 -.228E+03   0.714E+02 0.307E+02 0.229E+03   -.530E+01 -.544E+00 -.385E+00   -.734E-04 -.434E-04 0.399E-04
   0.429E+02 -.268E+02 -.220E+03   -.445E+02 0.293E+02 0.224E+03   0.163E+01 -.255E+01 -.438E+01   0.111E-03 0.379E-04 0.391E-05
   0.188E+02 -.588E+02 -.212E+03   -.205E+02 0.615E+02 0.207E+03   0.173E+01 -.265E+01 0.427E+01   0.920E-05 -.504E-04 0.138E-03
   0.488E+02 0.568E+02 -.218E+03   -.508E+02 -.618E+02 0.218E+03   0.198E+01 0.501E+01 -.403E+00   0.652E-04 0.923E-04 0.778E-04
   0.628E+02 -.301E+02 -.203E+03   -.654E+02 0.324E+02 0.199E+03   0.256E+01 -.233E+01 0.416E+01   0.852E-04 0.530E-04 0.114E-03
   -.289E+02 0.334E+02 -.242E+03   0.311E+02 -.359E+02 0.246E+03   -.220E+01 0.244E+01 -.411E+01   -.776E-04 0.189E-03 -.969E-04
   -.609E+02 -.727E+02 -.323E+03   0.638E+02 0.784E+02 0.328E+03   -.288E+01 -.578E+01 -.527E+01   -.577E-04 -.318E-04 0.437E-04
   0.155E+02 -.516E+02 -.227E+03   -.174E+02 0.544E+02 0.231E+03   0.193E+01 -.273E+01 -.417E+01   -.561E-05 -.780E-04 -.639E-05
   0.165E+03 0.377E+01 -.875E+03   -.164E+03 -.322E+01 0.876E+03   -.104E+01 -.562E+00 -.507E+00   0.605E-03 0.350E-03 0.331E-03
   -.346E+02 -.148E+03 -.900E+03   0.337E+02 0.146E+03 0.901E+03   0.982E+00 0.127E+01 -.824E+00   -.179E-03 -.422E-03 0.303E-03
   -.103E+02 0.236E+02 -.937E+03   0.126E+02 -.272E+02 0.932E+03   -.237E+01 0.361E+01 0.561E+01   0.151E-03 0.456E-03 0.384E-03
 -----------------------------------------------------------------------------------------------
   0.179E+02 -.162E+01 0.639E+02   -.153E-12 0.142E-13 -.716E-11   -.180E+02 0.149E+01 -.642E+02   0.190E-02 0.373E-02 0.247E-01
 
 
 POSITION                                       TOTAL-FORCE (eV/Angst)
 -----------------------------------------------------------------------------------
      0.99046      3.89727      0.91670        -1.485506     -1.866807     -0.711351
      4.22806      9.97101      0.91670        -1.487897     -1.883327     -0.768676
      8.54576      3.89727      0.91670        -1.348879     -1.930906     -0.788396
     11.78336      9.97101      0.91670        -1.353774     -1.837594     -0.782874
      0.16045     10.12553      1.16818        -0.227840      1.674287      0.309101
      4.47815      4.05179      1.16818        -0.189252      1.717544      0.193937
      7.71575     10.12553      1.16818        -0.100744      1.767114      0.161311
     12.03345      4.05179      1.16818        -0.139942      1.821756      0.506475
      3.52055      0.82336      1.36715        -0.848144     -0.875098      1.538537
      6.75815      6.89709      1.36715        -0.830566     -0.878767      1.539387
     11.07585      0.82336      1.36715        -0.769980     -0.811705      1.716703
     14.31345      6.89709      1.36715        -0.971015     -0.966348      1.757239
      2.69053      7.05173      1.61862         1.484132      0.470617     -2.507058
      7.00822      0.97799      1.61862         1.593020      0.447043     -2.509932
     10.24583      7.05173      1.61862         1.744086      0.382212     -2.469277
     14.56352      0.97799      1.61862         1.528299      0.510727     -2.469846
      0.54037     11.94193      4.09771        -0.001477      0.001272     -0.002875
      4.86154      5.87724      4.10179         0.001431      0.000819     -0.000025
      8.11970     11.95907      4.10680        -0.004004      0.003503     -0.005056
     12.40301      5.86182      4.15259        -0.005579      0.002078     -0.003983
      0.81570      6.01158      4.37388         0.005498      0.005482     -0.001358
      4.04788     12.08726      4.36706        -0.001165      0.003246     -0.000997
      8.37192      5.98435      4.36284        -0.000009      0.001118      0.000742
     11.59943     12.09687      4.37898         0.001073      0.001108     -0.001475
     -0.17885      2.79955      4.58877         0.001148     -0.003090     -0.000973
      3.03864      8.86770      4.58444        -0.003529     -0.007091     -0.002504
      7.36727      2.78069      4.57438         0.003780     -0.000745     -0.003942
     10.65572      8.87296      4.57480         0.002889     -0.005149      0.000463
      3.35917      2.94039      4.81163        -0.000031     -0.002312      0.001846
      6.57225      9.02686      4.79197         0.001517     -0.004807     -0.006877
     10.93363      2.98346      4.88955         0.000239      0.002134     -0.002954
     14.14484      8.99617      4.83810        -0.000204      0.002407      0.002230
      1.16943      7.79046      7.53058        -0.000136      0.003391      0.001858
      5.46161      1.69488      7.50109        -0.003471      0.001303     -0.002357
      8.71766      7.86281      7.30382         0.001287     -0.002347      0.002532
     13.06027      1.69411      7.52635        -0.002960      0.002150      0.001099
      1.48379      1.95773      7.48905         0.000095     -0.000945      0.000636
      4.69991      8.01392      7.49557        -0.006812     -0.011262      0.000372
      8.98503      1.91719      7.51806        -0.001781      0.003242      0.000507
     12.26935      8.04542      7.60969         0.002252      0.000541      0.001265
     -0.55327     10.80276      7.77392         0.004907     -0.001039     -0.008023
      3.74255      4.72035      7.79903        -0.003986      0.004888     -0.000179
      6.96728     10.77229      7.79056        -0.001137      0.002022      0.000866
     11.40141      4.65199      8.00950        -0.004422     -0.000722     -0.002638
     -0.27091      4.94747      8.04317         0.000873     -0.000299      0.004648
      2.93128     11.01515      8.05771        -0.006337      0.000225      0.005908
      7.22990      4.85894      8.00724         0.000515     -0.003376      0.000440
     10.49669     11.03011      8.06179        -0.003396      0.004027     -0.000579
      9.95504      6.69568     10.09081        -0.010480      0.001637      0.005320
      0.18233      2.09605      0.00000         0.268025      0.964352      1.282741
      3.41993      8.16979      0.00000         0.285692      0.991548      1.283501
      7.73763      2.09605      0.00000         0.254836      0.973614      1.297094
     10.97523      8.16979      0.00000         0.245258      0.993915      1.299416
      2.77584      5.24249      0.37900        -0.004083     -0.929078      0.594084
      6.01345     11.31622      0.37900        -0.036299     -0.930574      0.597569
     10.33114      5.24249      0.37900        -0.106099     -0.923490      0.587754
     13.56875     11.31622      0.37900        -0.046312     -0.928783      0.580783
      2.16153     10.82255      0.59691         0.407273      1.205021     -0.180319
      6.47922      4.74881      0.59691         0.391018      1.219722     -0.179424
      9.71683     10.82255      0.59691         0.351175      1.178969     -0.182504
     14.03452      4.74881      0.59691         0.400218      1.172881     -0.207911
      2.73983      2.74654      1.05910         1.187827     -1.030744     -0.425571
      5.97744      8.82028      1.05910         1.167046     -1.052264     -0.400074
     10.29513      2.74654      1.05910         1.120189     -1.023180     -0.449839
     13.53273      8.82028      1.05910         1.135430     -1.008575     -0.447784
      0.94100      8.20246      1.47622        -1.107735     -0.299555     -0.896813
      5.25870      2.12872      1.47622        -1.122779     -0.311149     -0.889146
      8.49630      8.20246      1.47622        -1.186438     -0.315651     -0.889293
     12.81400      2.12872      1.47622        -1.140508     -0.327522     -0.906433
      1.51931      0.12646      1.93841         0.362207     -0.065092      0.218269
      4.75691      6.20019      1.93841         0.430416     -0.012271      0.230433
      9.07461      0.12646      1.93841         0.408120     -0.034545      0.265220
     12.31221      6.20019      1.93841         0.346415     -0.090206      0.362827
      0.90515      5.70640      2.15632        -0.369239      0.328343      0.121534
      4.14276     11.78014      2.15632        -0.353194      0.325987      0.153667
      8.46045      5.70640      2.15632        -0.417276      0.304624      0.184745
     11.69806     11.78014      2.15632        -0.396665      0.319703      0.183689
      0.26091      2.77910      2.53532         0.205920      0.406619      0.522733
      3.49852      8.85284      2.53532         0.234332      0.423949      0.585390
      7.81621      2.77910      2.53532         0.210034      0.395138      0.477792
     11.05382      8.85284      2.53532         0.266791      0.437751      0.479818
     -0.21379     10.12117      3.20206         0.001325     -0.004679      0.000344
      4.11966      4.05572      3.20076         0.003135      0.002943      0.005036
      7.35675     10.13015      3.19952        -0.003629      0.000601      0.009950
     11.66980      4.04168      3.21462         0.003076     -0.005412      0.007096
      3.39592      1.13495      3.50437        -0.003311     -0.002546      0.000512
      6.63694      7.20936      3.51644        -0.001419     -0.009341     -0.004060
     10.95595      1.13916      3.52206         0.002582      0.000268      0.005650
     14.19147      7.20792      3.52109         0.002313     -0.006436      0.007176
      2.81447      6.70877      3.84727        -0.001989     -0.005999      0.003356
      7.14119      0.62141      3.85246        -0.004259     -0.000151      0.000305
     10.36003      6.70795      3.85017        -0.004845     -0.003307      0.004181
     14.67953      0.63777      3.85558        -0.001883     -0.009134      0.001179
      2.28697     10.81448      4.33882         0.003935      0.003021      0.003726
      6.59870      4.73321      4.33609        -0.007325      0.005306      0.005479
      9.84390     10.80566      4.34329         0.006617     -0.000136      0.005407
     14.16279      4.74513      4.37113         0.003275     -0.004935      0.006598
      1.60051      4.06936      4.60871        -0.001641      0.001800      0.000632
      4.82549     10.14503      4.63062         0.002773      0.003716     -0.002403
      9.13173      4.06678      4.64586         0.002226      0.006158      0.005692
     12.39112     10.16317      4.64429        -0.007070      0.008608     -0.000208
      1.05324      8.15529      5.13038         0.003095      0.001419     -0.003477
      5.36305      2.05832      5.10196         0.008474     -0.003161      0.004808
      8.62146      8.15116      5.12402        -0.008035      0.002696      0.003287
     12.93028      2.07426      5.17963         0.004769     -0.003199     -0.008958
      1.60650      1.58467      5.36699         0.003596     -0.004477      0.008655
      4.82077      7.66812      5.36961        -0.005027      0.005130     -0.000688
      9.15485      1.59790      5.39525        -0.002872     -0.005607     -0.005544
     12.37495      7.68012      5.38608         0.003934     -0.001396     -0.005191
     -0.24912     10.85329      5.74782         0.002004      0.001769      0.000141
      4.05838      4.80881      5.76725        -0.006791     -0.010671     -0.004691
      7.30503     10.85285      5.75790         0.012847      0.015108     -0.002204
     11.59496      4.78959      5.78443        -0.002012     -0.005440     -0.006200
      0.53714      5.98295      6.44217         0.002279     -0.005474     -0.005930
      3.68485     12.05277      6.43165         0.011864      0.007896     -0.001975
      7.96968      5.99686      6.44037        -0.002269      0.005159      0.009003
     11.18334     12.07659      6.43615        -0.003609      0.000049      0.002933
      2.98285      9.11258      6.77411        -0.003040      0.003224      0.006486
      7.24323      3.02939      6.73732        -0.000847     -0.010374      0.002750
     10.52664      9.10356      6.77900         0.004272     -0.000639      0.004153
     -0.19390      3.05221      6.74630        -0.005957     -0.002732     -0.002400
      3.48289      2.60122      6.97646         0.001000     -0.007263     -0.003894
      6.70024      8.65235      6.96208         0.011446      0.005369      0.000647
     11.00866      2.62105      7.10495        -0.000510     -0.000664      0.003299
     14.26767      8.64527      7.01485         0.000767     -0.002055      0.002531
      3.01794      6.73516      7.90343        -0.000127      0.004116      0.000574
      7.28706      0.62834      7.83262         0.010033      0.002555      0.004523
     10.46824      6.71973      7.84691        -0.001248      0.000373     -0.002407
     14.89234      0.67544      7.86631         0.000203      0.002569      0.001305
      2.22013      0.04824      7.93031        -0.001762     -0.002698      0.000850
      5.47663      6.13037      8.00047        -0.001302      0.001160      0.001800
      8.64096     12.14657      8.00285         0.016553     -0.005839     -0.002074
     13.00996      6.07818      7.84178         0.002588      0.002977     -0.005697
      1.73094      3.90328      8.42132        -0.003213      0.005032      0.006670
      4.94575      9.95122      8.41677         0.005620     -0.000400     -0.012811
      8.99518      3.76634      8.49617         0.004534     -0.003319     -0.003131
     12.55067     10.13285      8.28087        -0.001643     -0.002904     -0.000649
      1.12999      9.71516      8.54112         0.008629     -0.007805     -0.010045
      5.42808      3.63123      8.51492         0.003706      0.009850     -0.000620
      8.64624      9.63443      8.51237        -0.004264      0.003449     -0.012341
     13.14187      3.57688      8.52801        -0.001140     -0.005122     -0.011164
      0.40113      6.61183      8.98100        -0.004644     -0.000556     -0.001655
      4.73197      0.51813      8.97785        -0.006224      0.001398      0.006963
      8.13533      6.56763      9.05691         0.016522      0.003743     -0.007880
     12.28522      0.51422      8.98765         0.007026      0.003897      0.008957
     11.55001      8.09780      9.71229        -0.005875      0.004482     -0.000679
     10.97552      5.05641     10.01507        -0.005978      0.002356      0.007006
     11.01771      9.31788     12.16091        -0.007836     -0.007446      0.008327
      7.58690      8.23037     13.17216        -0.005247     -0.009537      0.001452
      9.57466      9.75810     11.20861        -0.002887     -0.006045      0.009071
      7.53497      6.66935     12.33318        -0.004734     -0.010920      0.000705
      7.41196      8.17484     11.40949        -0.002478      0.001444     -0.001533
      9.91639      7.24054     12.97353        -0.001927     -0.009022     -0.002503
     11.88147      8.77119     10.32909         0.000917     -0.009472     -0.007355
      9.51978      9.78098     12.97233        -0.002079     -0.007287      0.008447
      7.92457      7.69799     12.26227         0.009758     -0.015651     -0.002184
      9.92037      9.21616     12.10900         0.012878      0.001128      0.001726
      9.45878      7.74897     12.10421        -0.011803     -0.015131     -0.000001
 -----------------------------------------------------------------------------------
    total drift:                               -0.041625     -0.135822     -0.244901


--------------------------------------------------------------------------------------------------------



  FREE ENERGIE OF THE ION-ELECTRON SYSTEM (eV)
  ---------------------------------------------------
  free  energy   TOTEN  =     -1349.76017342 eV

  energy  without entropy=    -1349.76017342  energy(sigma->0) =    -1349.76017342
 


--------------------------------------------------------------------------------------------------------


    POTLOK:  cpu time    0.2339: real time    0.2345


--------------------------------------------------------------------------------------------------------


     LOOP+:  cpu time  384.7432: real time  385.8296
    4ORBIT:  cpu time    0.0010: real time    0.0000

 total amount of memory used by VASP MPI-rank0   174550. kBytes
=======================================================================

   base      :      30000. kBytes
   nonlr-proj:      11334. kBytes
   fftplans  :       9317. kBytes
   grid      :      26149. kBytes
   one-center:        839. kBytes
   wavefun   :      96911. kBytes
 
  
  
 General timing and accounting informations for this job:
 ========================================================
  
                  Total CPU time used (sec):      401.025
                            User time (sec):      384.241
                          System time (sec):       16.783
                         Elapsed time (sec):      402.494
  
                   Maximum memory used (kb):      417792.
                   Average memory used (kb):           0.
  
                          Minor page faults:        91895
                          Major page faults:            0
                 Voluntary context switches:          923
