       N       E                     dE             d eps       ncg     rms          rms(c)
DAV:   1    -0.137733521758E+04   -0.13773E+04   -0.13597E+00  6272   0.986E-01    0.954E-01
DAV:   2    -0.137909550859E+04   -0.17603E+01   -0.12115E+00  6208   0.959E-01    0.413E-01
DAV:   3    -0.137910540339E+04   -0.98948E-02   -0.43522E-02  6720   0.232E-01    0.279E-01
DAV:   4    -0.137910544925E+04   -0.45861E-04   -0.21798E-03  5600   0.578E-02    0.225E-01
DAV:   5    -0.137910545166E+04   -0.24069E-05   -0.20287E-04  6784   0.183E-02    0.190E-01
DAV:   6    -0.137910546142E+04   -0.97656E-05   -0.25142E-05  6592   0.739E-03    0.163E-01
DAV:   7    -0.137910546587E+04   -0.44476E-05   -0.23395E-05  6720   0.796E-03    0.131E-01
DAV:   8    -0.137910547002E+04   -0.41456E-05   -0.19705E-05  6240   0.696E-03    0.106E-01
DAV:   9    -0.137910547420E+04   -0.41874E-05   -0.61848E-06  4640   0.382E-03    0.895E-02
DAV:  10    -0.137910547846E+04   -0.42574E-05   -0.13185E-05  6016   0.576E-03    0.617E-02
DAV:  11    -0.137910548230E+04   -0.38443E-05   -0.36210E-05  6624   0.970E-03    0.212E-02
DAV:  12    -0.137910548365E+04   -0.13432E-05   -0.67928E-06  4896   0.361E-03    0.108E-02
DAV:  13    -0.137910548386E+04   -0.21495E-06   -0.66942E-07  3072   0.138E-03
   1 F= -.13985067E+04 E0= -.13985067E+04  d E =-.133110E-24  mag=    -0.0000
