 vasp.5.4.4.18Apr17-6-g9f103f2a35 (build Mar 06 2019 16:23:31) complex          
  
 executed on             LinuxIFC date 2021.12.02  08:24:51
 running on  128 total cores
 distrk:  each k-point on  128 cores,    1 groups
 distr:  one band on NCORES_PER_BAND=  16 cores,    8 groups


--------------------------------------------------------------------------------------------------------


 INCAR:
 POTCAR:    PAW_PBE Zr_sv 04Jan2005               
 POTCAR:    PAW_PBE O 08Apr2002                   
 POTCAR:    PAW_PBE H 15Jun2001                   
 POTCAR:    PAW_PBE C 08Apr2002                   
 POTCAR:    PAW_PBE Zr_sv 04Jan2005               
   VRHFIN =Zr: 4s4p5s4d                                                         
   LEXCH  = PE                                                                  
   EATOM  =  1284.2219 eV,   94.3876 Ry                                         
                                                                                
   TITEL  = PAW_PBE Zr_sv 04Jan2005                                             
   LULTRA =        F    use ultrasoft PP ?                                      
   IUNSCR =        1    unscreen: 0-lin 1-nonlin 2-no                           
   RPACOR =    2.200    partial core radius                                     
   POMASS =   91.224; ZVAL   =   12.000    mass and valenz                      
   RCORE  =    2.500    outmost cutoff radius                                   
   RWIGS  =    3.070; RWIGS  =    1.625    wigner-seitz radius (au A)           
   ENMAX  =  229.898; ENMIN  =  172.424 eV                                      
   ICORE  =        3    local potential                                         
   LCOR   =        T    correct aug charges                                     
   LPAW   =        T    paw PP                                                  
   EAUG   =  461.257                                                            
   DEXC   =    0.000                                                            
   RMAX   =    2.561    core radius for proj-oper                               
   RAUG   =    1.300    factor for augmentation sphere                          
   RDEP   =    2.597    radius for radial grids                                 
   RDEPT  =    2.007    core radius for aug-charge                              
                                                                                
   Atomic configuration                                                         
   11 entries                                                                   
     n  l   j            E        occ.                                          
     1  0  0.50    -17820.0161   2.0000                                         
     2  0  0.50     -2467.0882   2.0000                                         
     2  1  1.50     -2199.6095   6.0000                                         
     3  0  0.50      -402.4863   2.0000                                         
     3  1  1.50      -315.3675   6.0000                                         
     3  2  2.50      -172.4472  10.0000                                         
     4  0  0.50       -52.4146   2.0000                                         
     5  0  0.50        -3.8421   1.0000                                         
     4  1  1.50       -30.5054   6.0000                                         
     4  2  2.50        -2.3341   3.0000                                         
     4  3  2.50        -1.3606   0.0000                                         
   Description                                                                  
     l       E           TYP  RCUT    TYP  RCUT                                 
     0    -52.4145962     23  2.200                                             
     0     -3.8421270     23  2.500                                             
     1    -30.5053914     23  2.200                                             
     1     20.4087390     23  2.200                                             
     2     -2.3340816     23  2.500                                             
     2     -0.6120942     23  2.500                                             
     3     -4.0817478     23  2.500                                             
  local pseudopotential read in
  partial core-charges read in
  partial kinetic energy density read in
  atomic valenz-charges read in
  non local Contribution for L=           0  read in
    real space projection operators read in
  non local Contribution for L=           0  read in
    real space projection operators read in
  non local Contribution for L=           1  read in
    real space projection operators read in
  non local Contribution for L=           1  read in
    real space projection operators read in
  non local Contribution for L=           2  read in
    real space projection operators read in
  non local Contribution for L=           2  read in
    real space projection operators read in
    PAW grid and wavefunctions read in
 
   number of l-projection  operators is LMAX  =           6
   number of lm-projection operators is LMMAX =          18
 
 POTCAR:    PAW_PBE O 08Apr2002                   
   VRHFIN =O: s2p4                                                              
   LEXCH  = PE                                                                  
   EATOM  =   432.3788 eV,   31.7789 Ry                                         
                                                                                
   TITEL  = PAW_PBE O 08Apr2002                                                 
   LULTRA =        F    use ultrasoft PP ?                                      
   IUNSCR =        1    unscreen: 0-lin 1-nonlin 2-no                           
   RPACOR =    1.200    partial core radius                                     
   POMASS =   16.000; ZVAL   =    6.000    mass and valenz                      
   RCORE  =    1.520    outmost cutoff radius                                   
   RWIGS  =    1.550; RWIGS  =    0.820    wigner-seitz radius (au A)           
   ENMAX  =  400.000; ENMIN  =  300.000 eV                                      
   ICORE  =        2    local potential                                         
   LCOR   =        T    correct aug charges                                     
   LPAW   =        T    paw PP                                                  
   EAUG   =  605.392                                                            
   DEXC   =    0.000                                                            
   RMAX   =    1.553    core radius for proj-oper                               
   RAUG   =    1.300    factor for augmentation sphere                          
   RDEP   =    1.550    radius for radial grids                                 
   RDEPT  =    1.329    core radius for aug-charge                              
                                                                                
   Atomic configuration                                                         
    4 entries                                                                   
     n  l   j            E        occ.                                          
     1  0  0.50      -514.6923   2.0000                                         
     2  0  0.50       -23.9615   2.0000                                         
     2  1  0.50        -9.0305   4.0000                                         
     3  2  1.50        -9.5241   0.0000                                         
   Description                                                                  
     l       E           TYP  RCUT    TYP  RCUT                                 
     0    -23.9615318     23  1.200                                             
     0     -9.5240782     23  1.200                                             
     1     -9.0304911     23  1.520                                             
     1      8.1634956     23  1.520                                             
     2     -9.5240782      7  1.500                                             
  local pseudopotential read in
  partial core-charges read in
  partial kinetic energy density read in
  kinetic energy density of atom read in
  atomic valenz-charges read in
  non local Contribution for L=           0  read in
    real space projection operators read in
  non local Contribution for L=           0  read in
    real space projection operators read in
  non local Contribution for L=           1  read in
    real space projection operators read in
  non local Contribution for L=           1  read in
    real space projection operators read in
    PAW grid and wavefunctions read in
 
   number of l-projection  operators is LMAX  =           4
   number of lm-projection operators is LMMAX =           8
 
 POTCAR:    PAW_PBE H 15Jun2001                   
   VRHFIN =H: ultrasoft test                                                    
   LEXCH  = PE                                                                  
   EATOM  =    12.4884 eV,    0.9179 Ry                                         
                                                                                
   TITEL  = PAW_PBE H 15Jun2001                                                 
   LULTRA =        F    use ultrasoft PP ?                                      
   IUNSCR =        0    unscreen: 0-lin 1-nonlin 2-no                           
   RPACOR =    0.000    partial core radius                                     
   POMASS =    1.000; ZVAL   =    1.000    mass and valenz                      
   RCORE  =    1.100    outmost cutoff radius                                   
   RWIGS  =    0.700; RWIGS  =    0.370    wigner-seitz radius (au A)           
   ENMAX  =  250.000; ENMIN  =  200.000 eV                                      
   RCLOC  =    0.701    cutoff for local pot                                    
   LCOR   =        T    correct aug charges                                     
   LPAW   =        T    paw PP                                                  
   EAUG   =  400.000                                                            
   RMAX   =    1.123    core radius for proj-oper                               
   RAUG   =    1.200    factor for augmentation sphere                          
   RDEP   =    1.112    radius for radial grids                                 
   RDEPT  =    0.926    core radius for aug-charge                              
                                                                                
   Atomic configuration                                                         
    2 entries                                                                   
     n  l   j            E        occ.                                          
     1  0  0.50        -6.4927   1.0000                                         
     2  1  0.50        -3.4015   0.0000                                         
   Description                                                                  
     l       E           TYP  RCUT    TYP  RCUT                                 
     0     -6.4927494     23  1.100                                             
     0      6.8029130     23  1.100                                             
     1     -4.0817478     23  1.100                                             
  local pseudopotential read in
  atomic valenz-charges read in
  non local Contribution for L=           0  read in
    real space projection operators read in
  non local Contribution for L=           0  read in
    real space projection operators read in
  non local Contribution for L=           1  read in
    real space projection operators read in
    PAW grid and wavefunctions read in
 
   number of l-projection  operators is LMAX  =           3
   number of lm-projection operators is LMMAX =           5
 
 POTCAR:    PAW_PBE C 08Apr2002                   
   VRHFIN =C: s2p2                                                              
   LEXCH  = PE                                                                  
   EATOM  =   147.1560 eV,   10.8157 Ry                                         
                                                                                
   TITEL  = PAW_PBE C 08Apr2002                                                 
   LULTRA =        F    use ultrasoft PP ?                                      
   IUNSCR =        1    unscreen: 0-lin 1-nonlin 2-no                           
   RPACOR =    1.200    partial core radius                                     
   POMASS =   12.011; ZVAL   =    4.000    mass and valenz                      
   RCORE  =    1.500    outmost cutoff radius                                   
   RWIGS  =    1.630; RWIGS  =    0.863    wigner-seitz radius (au A)           
   ENMAX  =  400.000; ENMIN  =  300.000 eV                                      
   ICORE  =        2    local potential                                         
   LCOR   =        T    correct aug charges                                     
   LPAW   =        T    paw PP                                                  
   EAUG   =  644.873                                                            
   DEXC   =    0.000                                                            
   RMAX   =    1.529    core radius for proj-oper                               
   RAUG   =    1.300    factor for augmentation sphere                          
   RDEP   =    1.501    radius for radial grids                                 
   RDEPT  =    1.300    core radius for aug-charge                              
                                                                                
   Atomic configuration                                                         
    4 entries                                                                   
     n  l   j            E        occ.                                          
     1  0  0.50      -273.3789   2.0000                                         
     2  0  0.50       -13.7508   2.0000                                         
     2  1  0.50        -5.2854   2.0000                                         
     3  2  1.50        -5.4423   0.0000                                         
   Description                                                                  
     l       E           TYP  RCUT    TYP  RCUT                                 
     0    -13.7508458     23  1.200                                             
     0     -8.2022199     23  1.200                                             
     1     -5.2854383     23  1.500                                             
     1     34.0145650     23  1.500                                             
     2     -5.4423304      7  1.500                                             
  local pseudopotential read in
  partial core-charges read in
  partial kinetic energy density read in
  atomic valenz-charges read in
  non local Contribution for L=           0  read in
    real space projection operators read in
  non local Contribution for L=           0  read in
    real space projection operators read in
  non local Contribution for L=           1  read in
    real space projection operators read in
  non local Contribution for L=           1  read in
    real space projection operators read in
    PAW grid and wavefunctions read in
 
   number of l-projection  operators is LMAX  =           4
   number of lm-projection operators is LMMAX =           8
 
 Optimization of the real space projectors (new method)

 maximal supplied QI-value         = 15.12
 optimisation between [QCUT,QGAM] = [ 11.34, 22.83] = [ 36.00,145.93] Ry 
 Optimized for a Real-space Cutoff    1.47 Angstroem

   l    n(q)    QCUT    max X(q) W(low)/X(q) W(high)/X(q)  e(spline) 
   0     10    11.338    12.107    0.38E-04    0.13E-04    0.27E-07
   0     10    11.338     9.948    0.69E-04    0.30E-04    0.38E-07
   1     10    11.338     3.563    0.26E-04    0.18E-04    0.40E-07
   1     10    11.338     4.524    0.25E-03    0.39E-04    0.44E-06
   2      9    11.338    87.261    0.26E-03    0.91E-05    0.26E-06
   2      9    11.338    70.950    0.25E-03    0.91E-05    0.25E-06
 Optimization of the real space projectors (new method)

 maximal supplied QI-value         = 24.76
 optimisation between [QCUT,QGAM] = [ 11.39, 22.77] = [ 36.31,145.25] Ry 
 Optimized for a Real-space Cutoff    1.00 Angstroem

   l    n(q)    QCUT    max X(q) W(low)/X(q) W(high)/X(q)  e(spline) 
   0      7    11.387    20.381    0.39E-03    0.13E-02    0.15E-06
   0      7    11.387    15.268    0.42E-03    0.14E-02    0.17E-06
   1      6    11.387     5.964    0.41E-03    0.11E-02    0.17E-06
   1      6    11.387     5.382    0.39E-03    0.87E-03    0.15E-06
 Optimization of the real space projectors (new method)

 maximal supplied QI-value         = 34.20
 optimisation between [QCUT,QGAM] = [ 11.29, 22.57] = [ 35.68,142.71] Ry 
 Optimized for a Real-space Cutoff    1.16 Angstroem

   l    n(q)    QCUT    max X(q) W(low)/X(q) W(high)/X(q)  e(spline) 
   0      8    11.287    19.460    0.40E-03    0.73E-03    0.16E-06
   0      8    11.287    12.209    0.38E-03    0.70E-03    0.15E-06
   1      7    11.287     4.655    0.22E-03    0.25E-04    0.22E-06
 Optimization of the real space projectors (new method)

 maximal supplied QI-value         = 25.13
 optimisation between [QCUT,QGAM] = [ 11.31, 22.87] = [ 35.82,146.48] Ry 
 Optimized for a Real-space Cutoff    1.00 Angstroem

   l    n(q)    QCUT    max X(q) W(low)/X(q) W(high)/X(q)  e(spline) 
   0      7    11.310   115.676    0.43E-03    0.13E-02    0.19E-06
   0      7    11.310    87.132    0.43E-03    0.13E-02    0.18E-06
   1      6    11.310     4.429    0.42E-03    0.74E-03    0.11E-06
   1      6    11.310     2.733    0.34E-03    0.55E-03    0.92E-07
  PAW_PBE Zr_sv 04Jan2005               :
 energy of atom  1       EATOM=-1284.2219
 kinetic energy error for atom=    0.0049 (will be added to EATOM!!)
  PAW_PBE O 08Apr2002                   :
 energy of atom  2       EATOM= -432.3788
 kinetic energy error for atom=    0.0224 (will be added to EATOM!!)
  PAW_PBE H 15Jun2001                   :
 energy of atom  3       EATOM=  -12.4884
 kinetic energy error for atom=    0.0020 (will be added to EATOM!!)
  PAW_PBE C 08Apr2002                   :
 energy of atom  4       EATOM= -147.1560
 kinetic energy error for atom=    0.0076 (will be added to EATOM!!)
 
 
 POSCAR: Zr   O    H    C                        
  positions in direct lattice
  velocities in cartesian coordinates
  No initial velocities read in
 exchange correlation table for  LEXCH =        8
   RHO(1)=    0.500       N(1)  =     2000
   RHO(2)=  100.500       N(2)  =     4000

 VTST: version 3.2, (02/03/18)

 CHAIN: initializing optimizer
 
 OPT: Using Conjugate-Gradient optimizer
 OPT: CG, Init
 OPT: CG, FDSTEP      0.005000
 OPT: CG, MAXMOVE      0.200000
 
 CHAIN: Read ICHAIN            2
 
 POSCAR: Zr   O    H    C                        
  positions in direct lattice
  velocities in cartesian coordinates
  No initial velocities read in
 CHAIN: Running the Dimer method

 Dimer: -----------------
 Dimer: Input Parameters
 Dimer:   Seed      0
 Dimer: RotMax      4
 Dimer:     dR      0.005000
 Dimer:  FNMax      1.000000
 Dimer:  FNMin      0.010000
 Dimer: -----------------
 


--------------------------------------------------------------------------------------------------------


 ion  position               nearest neighbor table
   1  0.088  0.321  0.038-  78 2.10  62 2.10  50 2.18  74 2.19  61 2.26  54 2.30  16 3.37   6 3.50
                            12 3.52  13 3.65
   2  0.338  0.821  0.038-  79 2.10  63 2.10  51 2.18  75 2.19  58 2.26  55 2.30  13 3.37   7 3.50
                             9 3.52  14 3.65
   3  0.588  0.321  0.038-  80 2.10  64 2.10  52 2.18  76 2.19  59 2.26  56 2.30  14 3.37   8 3.50
                            10 3.52  15 3.65
   4  0.838  0.821  0.038-  81 2.10  65 2.10  53 2.18  77 2.19  60 2.26  57 2.30  15 3.37   5 3.50
                            11 3.52  16 3.65
   5  0.070  0.834  0.049-  82 2.07  66 2.10  65 2.18  58 2.19  57 2.22  70 2.30  12 3.37  17 3.47
                             4 3.50  16 3.52   9 3.65
   6  0.320  0.334  0.049-  83 2.06  67 2.10  62 2.18  59 2.19  54 2.22  71 2.30   9 3.37  18 3.48
                             1 3.50  13 3.52  10 3.65
   7  0.570  0.834  0.049-  84 2.06  68 2.10  63 2.18  60 2.19  55 2.22  72 2.30  10 3.37  19 3.49
                             2 3.50  14 3.52  11 3.65
   8  0.820  0.334  0.049-  85 2.08  69 2.10  64 2.18  61 2.19  56 2.22  73 2.30  11 3.37   3 3.50
                            20 3.51  15 3.52  12 3.65
   9  0.238  0.068  0.057-  62 2.10  86 2.16  67 2.18  70 2.19  75 2.22  58 2.30   6 3.37  17 3.48
                            14 3.50  22 3.52   2 3.52   5 3.65
  10  0.488  0.568  0.057-  63 2.10  87 2.17  68 2.18  71 2.19  76 2.22  59 2.30   7 3.37  18 3.48
                            15 3.50  23 3.52   3 3.52   6 3.65
  11  0.738  0.068  0.057-  64 2.10  69 2.18  88 2.18  72 2.19  77 2.22  60 2.30   8 3.37  19 3.47
                            16 3.50  24 3.52   4 3.52   7 3.65
  12  0.988  0.568  0.057-  65 2.10  66 2.18  89 2.18  73 2.19  74 2.22  61 2.30   5 3.37  13 3.50
                             1 3.52  21 3.53  20 3.53   8 3.65
  13  0.220  0.581  0.068-  51 2.10  66 2.10  79 2.18  54 2.19  90 2.26  71 2.26  74 2.30   2 3.37
                            21 3.50  26 3.50  18 3.50  12 3.50   6 3.52   1 3.65
  14  0.470  0.081  0.068-  52 2.10  67 2.10  80 2.18  55 2.19  72 2.26  91 2.27  75 2.30   3 3.37
                            27 3.48  22 3.49   9 3.50  19 3.51   7 3.52   2 3.65
  15  0.720  0.581  0.068-  53 2.10  68 2.10  81 2.18  56 2.19  73 2.26  92 2.26  76 2.30   4 3.37
                            23 3.49  28 3.50  10 3.50   8 3.52  20 3.53   3 3.65
  16  0.970  0.081  0.068-  50 2.10  69 2.10  78 2.18  57 2.19  70 2.26  93 2.26  77 2.30   1 3.37
                            24 3.49  17 3.50  11 3.50  25 3.50   5 3.52   4 3.65
  17  0.106  0.983  0.171-  94 2.09 110 2.13  82 2.16  70 2.19 106 2.20  93 2.23  86 2.30  32 3.39
                             5 3.47   9 3.48  16 3.50  22 3.52  25 3.54  29 3.67
  18  0.356  0.484  0.171-  95 2.09 111 2.13  83 2.17  71 2.19 107 2.20  90 2.23  87 2.30  29 3.37
                             6 3.48  10 3.48  13 3.50  23 3.52  26 3.53  30 3.65
  19  0.608  0.985  0.171-  96 2.09 112 2.14  84 2.18  72 2.19 108 2.20  91 2.23  88 2.28  30 3.39
                            11 3.47   7 3.49  24 3.50  14 3.51  27 3.52  31 3.70
  20  0.855  0.483  0.173-  97 2.10 113 2.11  85 2.18 109 2.20  92 2.23  73 2.24  89 2.33  31 3.31
                            28 3.50   8 3.51  21 3.53  12 3.53  15 3.53  32 3.65
  21  0.089  0.495  0.183- 114 2.09  98 2.11  97 2.17  90 2.18  74 2.24  89 2.27 102 2.29  25 3.37
                            13 3.50  32 3.51  12 3.53  20 3.53  26 3.63  33 3.64
  22  0.339  0.995  0.182- 115 2.10  99 2.11  94 2.18  91 2.19  75 2.24 103 2.26  86 2.27  26 3.38
                            14 3.49  29 3.51   9 3.52  17 3.52  34 3.61  27 3.62
  23  0.589  0.493  0.182- 100 2.08 116 2.11  95 2.17  92 2.18  76 2.23  87 2.28 104 2.31  27 3.36
                            15 3.49  35 3.51  10 3.52  18 3.52  30 3.56  28 3.69
  24  0.839  0.996  0.182- 117 2.09 101 2.11  93 2.18  96 2.18  77 2.24  88 2.26 105 2.29  28 3.37
                            16 3.49  19 3.50  11 3.52  31 3.54  36 3.62  25 3.64
  25  0.005  0.231  0.191-  78 2.10  97 2.10 121 2.18  98 2.19 105 2.21 106 2.29  93 2.30  21 3.37
                            37 3.45  16 3.50  17 3.54  29 3.55  24 3.64  36 3.64
  26  0.253  0.730  0.191-  94 2.10  79 2.10 102 2.18  99 2.20 118 2.20 107 2.29  90 2.29  22 3.38
                            38 3.46  13 3.50  18 3.53  30 3.54  21 3.63  33 3.65
  27  0.504  0.229  0.191-  80 2.09  95 2.11 100 2.18 119 2.19 103 2.19  91 2.29 108 2.29  23 3.36
                            39 3.46  14 3.48  19 3.52  31 3.59  22 3.62  34 3.66
  28  0.757  0.730  0.191-  81 2.08  96 2.11 101 2.16 120 2.22 104 2.23 109 2.24  92 2.30  24 3.37
                            35 3.49  15 3.50  32 3.50  20 3.50  40 3.55  23 3.69
  29  0.240  0.242  0.201-  98 2.10  83 2.10 122 2.19 103 2.21 111 2.21  86 2.23 106 2.29  18 3.37
                            37 3.42  42 3.50  22 3.51  25 3.55  34 3.63  17 3.67
  30  0.488  0.743  0.200-  99 2.08  84 2.09 112 2.20 123 2.20  87 2.22 104 2.25 107 2.29  19 3.39
                            38 3.44  43 3.49  35 3.50  26 3.54  23 3.56  18 3.65
  31  0.741  0.246  0.204-  85 2.11 100 2.12 113 2.12 105 2.21 124 2.24  88 2.30 108 2.32  20 3.31
                            39 3.43  24 3.54  44 3.58  27 3.59  36 3.62  19 3.70
  32  0.989  0.741  0.202- 101 2.11  82 2.13 110 2.19 125 2.21 102 2.21  89 2.23 109 2.27  17 3.39
                            41 3.47  28 3.50  40 3.50  21 3.51  33 3.63  20 3.65
  33  0.123  0.641  0.314- 142 2.02 126 2.16 138 2.17 114 2.21 125 2.25 118 2.38 102 2.41  45 3.23
                            41 3.48  38 3.55  32 3.63  21 3.64  26 3.65  46 3.72
  34  0.372  0.140  0.313- 143 2.03 127 2.14 139 2.19 115 2.20 122 2.24 119 2.35 103 2.43  46 3.23
                            42 3.49  39 3.53  22 3.61  29 3.63  27 3.66  47 3.68
  35  0.623  0.648  0.305- 140 2.16 128 2.16 144 2.18 123 2.20 116 2.21 104 2.21 120 2.25  49 3.31
                            47 3.41  43 3.43  28 3.49  30 3.50  23 3.51  40 3.55  48 3.71
  36  0.875  0.141  0.314- 145 2.03 141 2.13 129 2.13 117 2.22 124 2.28 105 2.38 121 2.40  48 3.23
                            44 3.44  37 3.54  31 3.62  24 3.62  25 3.64  45 3.72
  37  0.110  0.161  0.313- 130 2.09 121 2.14 106 2.16 129 2.16 122 2.16 134 2.17  29 3.42  41 3.45
                            25 3.45  45 3.52  36 3.54  42 3.58
  38  0.358  0.660  0.313- 131 2.10 118 2.16 126 2.16 107 2.16 135 2.16 123 2.17  30 3.44  42 3.45
                            26 3.46  46 3.53  33 3.55  43 3.59
  39  0.606  0.159  0.313- 136 2.11 132 2.11 108 2.15 127 2.16 124 2.17 119 2.20  31 3.43  43 3.44
                            27 3.46  47 3.47  34 3.53  44 3.66
  40  0.858  0.662  0.318- 133 2.10 125 2.19 120 2.20 137 2.22 146 2.23 128 2.24 109 2.27  32 3.50
                            48 3.50  44 3.50  28 3.55  35 3.55  41 3.60  49 3.71
  41  0.027  0.889  0.324- 110 2.05 138 2.15 129 2.16 137 2.18 130 2.20 125 2.30  37 3.45  32 3.47
                            33 3.48  46 3.51  40 3.60
  42  0.275  0.389  0.325- 111 2.06 139 2.13 126 2.15 131 2.24 134 2.26 122 2.29  38 3.45  34 3.49
                            29 3.50  47 3.50  37 3.58
  43  0.524  0.888  0.325- 112 2.06 127 2.14 140 2.15 132 2.18 135 2.27 123 2.29  35 3.43  39 3.44
                            30 3.49  48 3.55  38 3.59
  44  0.780  0.384  0.334- 147 2.08 141 2.13 133 2.17 113 2.24 128 2.24 124 2.28 136 2.51  49 3.30
                            36 3.44  45 3.47  40 3.50  31 3.58  39 3.66
  45  0.010  0.407  0.336- 142 2.03 114 2.07 133 2.16 141 2.23 134 2.30 121 2.30  33 3.23  44 3.47
                            37 3.52  36 3.72
  46  0.259  0.907  0.336- 143 2.02 115 2.07 130 2.15 138 2.28 118 2.29 135 2.31  34 3.23  41 3.51
                            38 3.53  33 3.72
  47  0.508  0.402  0.334- 116 2.06 136 2.14 131 2.16 144 2.21 119 2.24 139 2.25  35 3.41  39 3.47
                            42 3.50  34 3.68  49 3.86
  48  0.760  0.909  0.336- 145 2.01 117 2.05 132 2.17 137 2.25 120 2.31 140 2.36  36 3.23  40 3.50
                            43 3.55  35 3.71
  49  0.694  0.550  0.424- 147 1.93 159 1.93 144 2.11 146 2.19 128 2.38 166 2.79 167 2.79  44 3.30
                            35 3.31  40 3.71  47 3.86
  50  0.024  0.173  0.000-  16 2.10   1 2.18
  51  0.274  0.673  0.000-  13 2.10   2 2.18
  52  0.524  0.173  0.000-  14 2.10   3 2.18
  53  0.774  0.673  0.000-  15 2.10   4 2.18
  54  0.215  0.432  0.016-  13 2.19   6 2.22   1 2.30
  55  0.465  0.932  0.016-  14 2.19   7 2.22   2 2.30
  56  0.715  0.432  0.016-  15 2.19   8 2.22   3 2.30
  57  0.965  0.932  0.016-  16 2.19   5 2.22   4 2.30
  58  0.207  0.891  0.025-   5 2.19   2 2.26   9 2.30
  59  0.457  0.391  0.025-   6 2.19   3 2.26  10 2.30
  60  0.707  0.891  0.025-   7 2.19   4 2.26  11 2.30
  61  0.957  0.391  0.025-   8 2.19   1 2.26  12 2.30
  62  0.197  0.226  0.044-   9 2.10   1 2.10   6 2.18
  63  0.447  0.726  0.044-  10 2.10   2 2.10   7 2.18
  64  0.697  0.226  0.044-  11 2.10   3 2.10   8 2.18
  65  0.947  0.726  0.044-  12 2.10   4 2.10   5 2.18
  66  0.111  0.675  0.062-   5 2.10  13 2.10  12 2.18
  67  0.361  0.175  0.062-   6 2.10  14 2.10   9 2.18
  68  0.611  0.675  0.062-   7 2.10  15 2.10  10 2.18
  69  0.861  0.175  0.062-   8 2.10  16 2.10  11 2.18
  70  0.101  0.010  0.081-  17 2.19   9 2.19  16 2.26   5 2.30
  71  0.351  0.510  0.081-  18 2.19  10 2.19  13 2.26   6 2.30
  72  0.601  0.010  0.081-  19 2.19  11 2.19  14 2.26   7 2.30
  73  0.851  0.510  0.081-  12 2.19  20 2.24  15 2.26   8 2.30
  74  0.093  0.470  0.090-   1 2.19  12 2.22  21 2.24  13 2.30
  75  0.343  0.970  0.090-   2 2.19   9 2.22  22 2.24  14 2.30
  76  0.593  0.470  0.090-   3 2.19  10 2.22  23 2.23  15 2.30
  77  0.843  0.970  0.090-   4 2.19  11 2.22  24 2.24  16 2.30
  78  0.034  0.229  0.106-  25 2.10   1 2.10  16 2.18
  79  0.284  0.729  0.106-   2 2.10  26 2.10  13 2.18
  80  0.534  0.229  0.106-  27 2.09   3 2.10  14 2.18
  81  0.784  0.729  0.106-  28 2.08   4 2.10  15 2.18
  82  0.046  0.833  0.134-   5 2.07  32 2.13  17 2.16
  83  0.296  0.334  0.133-   6 2.06  29 2.10  18 2.17
  84  0.547  0.834  0.133-   7 2.06  30 2.09  19 2.18
  85  0.796  0.333  0.134-   8 2.08  31 2.11  20 2.18
  86  0.231  0.093  0.146-   9 2.16  29 2.23  22 2.27  17 2.30
  87  0.482  0.594  0.147-  10 2.17  30 2.22  23 2.28  18 2.30
  88  0.732  0.094  0.147-  11 2.18  24 2.26  19 2.28  31 2.30
  89  0.982  0.594  0.147-  12 2.18  32 2.23  21 2.27  20 2.33
  90  0.226  0.552  0.160-  21 2.18  18 2.23  13 2.26  26 2.29
  91  0.476  0.051  0.161-  22 2.19  19 2.23  14 2.27  27 2.29
  92  0.725  0.552  0.161-  23 2.18  20 2.23  15 2.26  28 2.30
  93  0.975  0.052  0.161-  24 2.18  17 2.23  16 2.26  25 2.30
  94  0.215  0.890  0.181-  17 2.09  26 2.10  22 2.18
  95  0.464  0.390  0.180-  18 2.09  27 2.11  23 2.17
  96  0.715  0.890  0.181-  19 2.09  28 2.11  24 2.18
  97  0.965  0.391  0.182-  20 2.10  25 2.10  21 2.17
  98  0.130  0.335  0.192-  29 2.10  21 2.11  25 2.19
  99  0.379  0.835  0.193-  30 2.08  22 2.11  26 2.20
 100  0.628  0.335  0.194-  23 2.08  31 2.12  27 2.18
 101  0.880  0.836  0.193-  24 2.11  32 2.11  28 2.16
 102  0.118  0.671  0.215-  26 2.18  32 2.21  21 2.29  33 2.41
 103  0.367  0.170  0.213-  27 2.19  29 2.21  22 2.26  34 2.43
 104  0.618  0.671  0.213-  35 2.21  28 2.23  30 2.25  23 2.31
 105  0.868  0.171  0.216-  25 2.21  31 2.21  24 2.29  36 2.38
 106  0.116  0.131  0.224-  37 2.16  17 2.20  29 2.29  25 2.29
 107  0.364  0.631  0.224-  38 2.16  18 2.20  26 2.29  30 2.29
 108  0.615  0.132  0.225-  39 2.15  19 2.20  27 2.29  31 2.32
 109  0.864  0.632  0.225-  20 2.20  28 2.24  32 2.27  40 2.27
 110  0.047  0.894  0.240-  41 2.05  17 2.13  32 2.19
 111  0.297  0.396  0.241-  42 2.06  18 2.13  29 2.21
 112  0.547  0.894  0.240-  43 2.06  19 2.14  30 2.20
 113  0.796  0.394  0.241-  20 2.11  31 2.12  44 2.24
 114  0.069  0.492  0.269-  45 2.07  21 2.09  33 2.21
 115  0.316  0.992  0.268-  46 2.07  22 2.10  34 2.20
 116  0.561  0.494  0.268-  47 2.06  23 2.11  35 2.21
 117  0.813  0.994  0.268-  48 2.05  24 2.09  36 2.22
 118  0.251  0.751  0.283-  38 2.16  26 2.20  46 2.29  33 2.38
 119  0.497  0.250  0.281-  27 2.19  39 2.20  47 2.24  34 2.35
 120  0.750  0.750  0.283-  40 2.20  28 2.22  35 2.25  48 2.31
 121  0.005  0.251  0.282-  37 2.14  25 2.18  45 2.30  36 2.40
 122  0.246  0.215  0.291-  37 2.16  29 2.19  34 2.24  42 2.29
 123  0.494  0.713  0.290-  38 2.17  30 2.20  35 2.20  43 2.29
 124  0.744  0.215  0.296-  39 2.17  31 2.24  44 2.28  36 2.28
 125  0.995  0.712  0.293-  40 2.19  32 2.21  33 2.25  41 2.30
 126  0.239  0.555  0.329-  42 2.15  38 2.16  33 2.16
 127  0.486  0.053  0.327-  34 2.14  43 2.14  39 2.16
 128  0.731  0.552  0.327-  35 2.16  44 2.24  40 2.24  49 2.38
 129  0.990  0.056  0.329-  36 2.13  41 2.16  37 2.16
 130  0.147  0.004  0.330-  37 2.09  46 2.15  41 2.20
 131  0.398  0.505  0.334-  38 2.10  47 2.16  42 2.24
 132  0.644  0.001  0.334-  39 2.11  48 2.17  43 2.18
 133  0.896  0.501  0.328-  40 2.10  45 2.16  44 2.17
 134  0.137  0.321  0.351-  37 2.17  42 2.26  45 2.30
 135  0.386  0.820  0.352-  38 2.16  43 2.27  46 2.31
 136  0.621  0.315  0.352-  39 2.11  47 2.14  44 2.51
 137  0.890  0.834  0.346-  41 2.18  40 2.22  48 2.25
 138  0.132  0.800  0.356-  41 2.15  33 2.17  46 2.28
 139  0.381  0.300  0.355-  42 2.13  34 2.19  47 2.25
 140  0.629  0.795  0.355-  43 2.15  35 2.16  48 2.36
 141  0.890  0.295  0.356-  44 2.13  36 2.13  45 2.23
 142  0.065  0.544  0.375-  33 2.02  45 2.03
 143  0.316  0.043  0.375-  46 2.02  34 2.03
 144  0.577  0.547  0.376-  49 2.11  35 2.18  47 2.21
 145  0.815  0.044  0.374-  48 2.01  36 2.03
 146  0.808  0.668  0.406- 148 0.97  49 2.19  40 2.23
 147  0.758  0.421  0.418-  49 1.93  44 2.08
 148  0.838  0.725  0.430- 146 0.97
 149  0.776  0.033  0.474- 164 1.10
 150  0.850  0.858  0.457- 163 1.11
 151  0.960  0.019  0.527- 162 1.10
 152  0.854  0.837  0.529- 163 1.10
 153  0.916  0.141  0.503- 162 1.10
 154  0.937  0.037  0.455- 162 1.10
 155  0.687  0.823  0.456- 165 1.11
 156  0.793  0.015  0.546- 164 1.10
 157  0.680  0.857  0.526- 165 1.10
 158  0.778  0.667  0.532- 166 1.10
 159  0.609  0.498  0.480-  49 1.93
 160  0.575  0.656  0.518- 167 1.09
 161  0.639  0.560  0.556- 167 1.09
 162  0.913  0.051  0.497- 153 1.10 154 1.10 151 1.10 164 1.53
 163  0.815  0.872  0.496- 152 1.10 150 1.11 164 1.53 165 1.54
 164  0.819  0.997  0.504- 149 1.10 156 1.10 162 1.53 163 1.53
 165  0.720  0.813  0.496- 157 1.10 155 1.11 166 1.52 163 1.54
 166  0.716  0.693  0.515- 158 1.10 167 1.37 165 1.52  49 2.79
 167  0.640  0.628  0.527- 161 1.09 160 1.09 166 1.37  49 2.79
 
  Warning from LATTYP: Monoclinic adjustement (A1->A3, A2->A1, A3->A2)!
  Warning from LATTYP: Got some problem with cell dimensions!
  Tried to take original basis but could not verify dimensions!
  LATTYP: Found a simple monoclinic cell.
 ALAT       =    18.5584556648
 B/A-ratio  =     1.2917238965
 C/A-ratio  =     1.7011970181
 COS(beta)  =    -0.9496615564
  
  Lattice vectors:
  
 A1 = ( -14.0305058395, -12.1474763861,   0.0000000000)
 A2 = (   0.0000000000,   0.0000000000, -23.9724006653)
 A3 = (  29.1411063110,  12.1474763861,   0.0000000000)


Analysis of symmetry for initial positions (statically):
=====================================================================
 Subroutine PRICEL returns:
 Original cell was already a primitive cell.
 

 Routine SETGRP: Setting up the symmetry group for a 
 simple monoclinic supercell.


 Subroutine GETGRP returns: Found  1 space group operations
 (whereof  1 operations were pure point group operations)
 out of a pool of  4 trial point group operations.


The static configuration has the point symmetry C_1 .


Analysis of symmetry for dynamics (positions and initial velocities):
=====================================================================
 Subroutine PRICEL returns:
 Original cell was already a primitive cell.
 

 Routine SETGRP: Setting up the symmetry group for a 
 simple monoclinic supercell.


 Subroutine GETGRP returns: Found  1 space group operations
 (whereof  1 operations were pure point group operations)
 out of a pool of  4 trial point group operations.


The dynamic configuration has the point symmetry C_1 .


Analysis of constrained symmetry for selective dynamics:
=====================================================================
 Subroutine PRICEL returns:
 Original cell was already a primitive cell.
 

 Routine SETGRP: Setting up the symmetry group for a 
 simple monoclinic supercell.


 Subroutine GETGRP returns: Found  1 space group operations
 (whereof  1 operations were pure point group operations)
 out of a pool of  4 trial point group operations.


The constrained configuration has the point symmetry C_1 .


Analysis of structural, dynamic, and magnetic symmetry:
=====================================================================
 Subroutine PRICEL returns:
 Original cell was already a primitive cell.
 

 Routine SETGRP: Setting up the symmetry group for a 
 simple monoclinic supercell.


 Subroutine GETGRP returns: Found  1 space group operations
 (whereof  1 operations were pure point group operations)
 out of a pool of  4 trial point group operations.


The magnetic configuration has the point symmetry C_1 .


 Subroutine INISYM returns: Found  1 space group operations
 (whereof  1 operations are pure point group operations),
 and found     1 'primitive' translations

 
 
 KPOINTS: Monkhorst Pack                          

Automatic generation of k-mesh.
Space group operators:
 irot       det(A)        alpha          n_x          n_y          n_z        tau_x        tau_y        tau_z
    1     1.000000     0.000000     1.000000     0.000000     0.000000     0.000000     0.000000     0.000000
 
 Subroutine IBZKPT returns following result:
 ===========================================
 
 Found      2 irreducible k-points:
 
 Following reciprocal coordinates:
            Coordinates               Weight
  0.250000  0.250000  0.000000      2.000000
 -0.250000  0.250000  0.000000      2.000000
 
 Following cartesian coordinates:
            Coordinates               Weight
  0.016545  0.022051  0.000000      2.000000
 -0.016545  0.019109  0.000000      2.000000
 


--------------------------------------------------------------------------------------------------------




 Dimension of arrays:
   k-points           NKPTS =      2   k-points in BZ     NKDIM =      2   number of bands    NBANDS=    640
   number of dos      NEDOS =    301   number of ions     NIONS =    167
   non local maximal  LDIM  =      6   non local SUM 2l+1 LMDIM =     18
   total plane-waves  NPLWV = 823200
   max r-space proj   IRMAX =   2561   max aug-charges    IRDMAX=   7978
   dimension x,y,z NGX =    84 NGY =   70 NGZ =  140
   dimension x,y,z NGXF=   168 NGYF=  140 NGZF=  280
   support grid    NGXF=   168 NGYF=  140 NGZF=  280
   ions per type =              49  98  14   6
   NGX,Y,Z   is equivalent  to a cutoff of   9.24,  9.54,  9.71 a.u.
   NGXF,Y,Z  is equivalent  to a cutoff of  18.48, 19.08, 19.42 a.u.

 SYSTEM =  mZrO2_n111_dimer                        
 POSCAR =  Zr   O    H    C                        

 Startparameter for this run:
   NWRITE =      2    write-flag & timer
   PREC   = normal    normal or accurate (medium, high low for compatibility)
   ISTART =      1    job   : 0-new  1-cont  2-samecut
   ICHARG =      1    charge: 1-file 2-atom 10-const
   ISPIN  =      2    spin polarized calculation?
   LNONCOLLINEAR =      F non collinear calculations
   LSORBIT =      F    spin-orbit coupling
   INIWAV =      1    electr: 0-lowe 1-rand  2-diag
   LASPH  =      F    aspherical Exc in radial PAW
   METAGGA=      F    non-selfconsistent MetaGGA calc.

 Electronic Relaxation 1
   ENCUT  =  500.0 eV  36.75 Ry    6.06 a.u.  27.55 22.24 43.71*2*pi/ulx,y,z
   ENINI  =  500.0     initial cutoff
   ENAUG  =  644.9 eV  augmentation charge cutoff
   NELM   =    300;   NELMIN=  2; NELMDL=  0     # of ELM steps 
   EDIFF  = 0.1E-05   stopping-criterion for ELM
   LREAL  =      T    real-space projection
   NLSPLINE    = F    spline interpolate recip. space projectors
   LCOMPAT=      F    compatible to vasp.4.4
   GGA_COMPAT  = T    GGA compatible to vasp.4.4-vasp.4.6
   LMAXPAW     = -100 max onsite density
   LMAXMIX     =    2 max onsite mixed and CHGCAR
   VOSKOWN=      0    Vosko Wilk Nusair interpolation
   ROPT   =   -0.00050  -0.00050  -0.00050  -0.00050
 Ionic relaxation
   EDIFFG = -.5E-01   stopping-criterion for IOM
   NSW    =      0    number of steps for IOM
   NBLOCK =      1;   KBLOCK =      1    inner block; outer block 
   IBRION =     -1    ionic relax: 0-MD 1-quasi-New 2-CG
   NFREE  =      0    steps in history (QN), initial steepest desc. (CG)
   ISIF   =      2    stress and relaxation
   IWAVPR =     10    prediction:  0-non 1-charg 2-wave 3-comb
   ISYM   =      2    0-nonsym 1-usesym 2-fastsym
   LCORR  =      T    Harris-Foulkes like correction to forces

   POTIM  = 0.0000    time-step for ionic-motion
   TEIN   =    0.0    initial temperature
   TEBEG  =    0.0;   TEEND  =   0.0 temperature during run
   SMASS  =  -3.00    Nose mass-parameter (am)
   estimated Nose-frequenzy (Omega)   =  0.10E-29 period in steps =  0.00 mass=  -0.522E-26a.u.
   SCALEE = 1.0000    scale energy and forces
   NPACO  =    256;   APACO  = 16.0  distance and # of slots for P.C.
   PSTRESS=    0.0 pullay stress

  Mass of Ions in am
   POMASS =  91.22 16.00  1.00 12.01
  Ionic Valenz
   ZVAL   =  12.00  6.00  1.00  4.00
  Atomic Wigner-Seitz radii
   RWIGS  =  -1.00 -1.00 -1.00 -1.00
  virtual crystal weights 
   VCA    =   1.00  1.00  1.00  1.00
   NELECT =    1214.0000    total number of electrons
   NUPDOWN=      -1.0000    fix difference up-down

 DOS related values:
   EMIN   =  10.00;   EMAX   =-10.00  energy-range for DOS
   EFERMI =   0.00
   ISMEAR =     0;   SIGMA  =   0.05  broadening in eV -4-tet -1-fermi 0-gaus

 Electronic relaxation 2 (details)
   IALGO  =     38    algorithm
   LDIAG  =      T    sub-space diagonalisation (order eigenvalues)
   LSUBROT=      F    optimize rotation matrix (better conditioning)
   TURBO    =      0    0=normal 1=particle mesh
   IRESTART =      0    0=no restart 2=restart with 2 vectors
   NREBOOT  =      0    no. of reboots
   NMIN     =      0    reboot dimension
   EREF     =   0.00    reference energy to select bands
   IMIX   =      4    mixing-type and parameters
     AMIX     =   0.40;   BMIX     =  1.00
     AMIX_MAG =   1.60;   BMIX_MAG =  1.00
     AMIN     =   0.10
     WC   =   100.;   INIMIX=   1;  MIXPRE=   1;  MAXMIX= -45

 Intra band minimization:
   WEIMIN = 0.0000     energy-eigenvalue tresh-hold
   EBREAK =  0.39E-09  absolut break condition
   DEPER  =   0.30     relativ break condition  

   TIME   =   0.40     timestep for ELM

  volume/ion in A,a.u.               =      26.35       177.81
  Fermi-wavevector in a.u.,A,eV,Ry     =   1.065748  2.013972 15.453760  1.135819
  Thomas-Fermi vector in A             =   2.201310
 
 Write flags
   LWAVE        =      T    write WAVECAR
   LDOWNSAMPLE  =      F    k-point downsampling of WAVECAR
   LCHARG       =      T    write CHGCAR
   LVTOT        =      F    write LOCPOT, total local potential
   LVHAR        =      F    write LOCPOT, Hartree potential only
   LELF         =      F    write electronic localiz. function (ELF)
   LORBIT       =      0    0 simple, 1 ext, 2 COOP (PROOUT), +10 PAW based schemes


 Dipole corrections
   LMONO  =      F    monopole corrections only (constant potential shift)
   LDIPOL =      F    correct potential (dipole corrections)
   IDIPOL =      3    1-x, 2-y, 3-z, 4-all directions 
   EPSILON=  1.0000000 bulk dielectric constant

 LDA+U is selected, type is set to LDAUTYPE =  2
   angular momentum for each species LDAUL =     2   -1   -1   -1
   U (eV)           for each species LDAUU =   4.0  0.0  0.0  0.0
   J (eV)           for each species LDAUJ =   0.0  0.0  0.0  0.0
 Exchange correlation treatment:
   GGA     =    --    GGA type
   LEXCH   =     8    internal setting for exchange type
   VOSKOWN=      0    Vosko Wilk Nusair interpolation
   LHFCALC =     F    Hartree Fock is set to
   LHFONE  =     F    Hartree Fock one center treatment
   AEXX    =    0.0000 exact exchange contribution

 Linear response parameters
   LEPSILON=     F    determine dielectric tensor
   LRPA    =     F    only Hartree local field effects (RPA)
   LNABLA  =     F    use nabla operator in PAW spheres
   LVEL    =     F    velocity operator in full k-point grid
   LINTERFAST=   F  fast interpolation
   KINTER  =     0    interpolate to denser k-point grid
   CSHIFT  =0.1000    complex shift for real part using Kramers Kronig
   OMEGAMAX=  -1.0    maximum frequency
   DEG_THRESHOLD= 0.2000000E-02 threshold for treating states as degnerate
   RTIME   =   -0.100 relaxation time in fs
  (WPLASMAI=    0.000 imaginary part of plasma frequency in eV, 0.658/RTIME)
   DFIELD  = 0.0000000 0.0000000 0.0000000 field for delta impulse in time
 
 Orbital magnetization related:
   ORBITALMAG=     F  switch on orbital magnetization
   LCHIMAG   =     F  perturbation theory with respect to B field
   DQ        =  0.001000  dq finite difference perturbation B field
   LLRAUG    =     F  two centre corrections for induced B field



--------------------------------------------------------------------------------------------------------


 Static calculation
 charge density and potential will be updated during run
 spin polarized calculation
 Variant of blocked Davidson
 Davidson routine will perform the subspace rotation
 perform sub-space diagonalisation
    after iterative eigenvector-optimisation
 modified Broyden-mixing scheme, WC =      100.0
 initial mixing is a Kerker type mixing with AMIX =  0.4000 and BMIX =      1.0000
 Hartree-type preconditioning will be used
 using additional bands           33
 real space projection scheme for non local part
 use partial core corrections
 calculate Harris-corrections to forces 
   (improved forces if not selfconsistent)
 use gradient corrections 
 use of overlap-Matrix (Vanderbilt PP)
 Gauss-broadening in eV      SIGMA  =   0.05


--------------------------------------------------------------------------------------------------------


  energy-cutoff  :      500.00
  volume of cell :     4400.27
      direct lattice vectors                 reciprocal lattice vectors
    15.110600471  0.000000000  0.000000000     0.066178707  0.005884289  0.000000000
    -1.080094632 12.147476386  0.000000000     0.000000000  0.082321625  0.000000000
     0.000000000  0.000000000 23.972400665     0.000000000  0.000000000  0.041714637

  length of vectors
    15.110600471 12.195400238 23.972400665     0.066439793  0.082321625  0.041714637


 
 old parameters found on file WAVECAR:
  energy-cutoff  :      500.00
  volume of cell :     4400.27
      direct lattice vectors                 reciprocal lattice vectors
    15.110600471  0.000000000  0.000000000     0.066178707  0.005884289  0.000000000
    -1.080094632 12.147476386  0.000000000     0.000000000  0.082321625  0.000000000
     0.000000000  0.000000000 23.972400665     0.000000000  0.000000000  0.041714637

  length of vectors

 
 k-points in units of 2pi/SCALE and weight: Monkhorst Pack                          
   0.01654468  0.02205148  0.00000000       0.500
  -0.01654468  0.01910933  0.00000000       0.500
 
 k-points in reciprocal lattice and weights: Monkhorst Pack                          
   0.25000000  0.25000000  0.00000000       0.500
  -0.25000000  0.25000000  0.00000000       0.500
 
 position of ions in fractional coordinates (direct lattice) 
   0.08848000  0.32082999  0.03824000
   0.33847998  0.82083000  0.03824000
   0.58847999  0.32082999  0.03824000
   0.83848001  0.82083000  0.03824000
   0.07020001  0.83354995  0.04873000
   0.32019998  0.33355000  0.04873000
   0.57020004  0.83354995  0.04873000
   0.82020001  0.33355000  0.04873000
   0.23783000  0.06778000  0.05703000
   0.48783004  0.56778001  0.05703000
   0.73783001  0.06778000  0.05703000
   0.98782997  0.56778001  0.05703000
   0.21954999  0.58051001  0.06752000
   0.46955000  0.08051000  0.06752000
   0.71954999  0.58051001  0.06752000
   0.96955000  0.08051000  0.06752000
   0.10596371  0.98302017  0.17099244
   0.35619754  0.48390438  0.17109772
   0.60768096  0.98466880  0.17125582
   0.85529285  0.48280395  0.17330748
   0.08916853  0.49493957  0.18262910
   0.33906854  0.99517434  0.18226679
   0.58906819  0.49300835  0.18196043
   0.83896847  0.99587631  0.18245860
   0.00468513  0.23057589  0.19133593
   0.25323692  0.73003973  0.19134850
   0.50382816  0.22932937  0.19090798
   0.75736801  0.73035504  0.19086335
   0.23960839  0.24212789  0.20078988
   0.48809566  0.74317491  0.19990550
   0.74117808  0.24596883  0.20387425
   0.98870592  0.74061592  0.20219503
   0.12267630  0.64136312  0.31415563
   0.37156170  0.14033955  0.31309105
   0.62345341  0.64807958  0.30484301
   0.87467959  0.14093996  0.31359817
   0.10961012  0.16135011  0.31257923
   0.35822401  0.66025631  0.31270258
   0.60635191  0.15933409  0.31325050
   0.85806194  0.66162034  0.31838448
   0.02663061  0.88949261  0.32448716
   0.27539163  0.38885593  0.32535865
   0.52444459  0.88791316  0.32478895
   0.78010164  0.38408149  0.33428956
   0.01030451  0.40740267  0.33587078
   0.25880525  0.90717946  0.33610193
   0.50752826  0.40243723  0.33426653
   0.75974022  0.90886558  0.33564542
   0.69428315  0.55030554  0.42386061
   0.02440000  0.17254999  0.00000000
   0.27439999  0.67255002  0.00000000
   0.52439999  0.17254999  0.00000000
   0.77439999  0.67255002  0.00000000
   0.21455000  0.43156997  0.01581000
   0.46455001  0.93156996  0.01581000
   0.71455008  0.43156997  0.01581000
   0.96455004  0.93156996  0.01581000
   0.20673000  0.89092997  0.02490000
   0.45673000  0.39092998  0.02490000
   0.70672997  0.89092997  0.02490000
   0.95673004  0.39092998  0.02490000
   0.19748000  0.22610000  0.04418000
   0.44748002  0.72610003  0.04418000
   0.69748003  0.22610000  0.04418000
   0.94747999  0.72610003  0.04418000
   0.11054000  0.67523994  0.06158000
   0.36054002  0.17523999  0.06158000
   0.61053998  0.67523994  0.06158000
   0.86053999  0.17523999  0.06158000
   0.10129000  0.01041000  0.08086000
   0.35129000  0.51041000  0.08086000
   0.60128998  0.01041000  0.08086000
   0.85128994  0.51041000  0.08086000
   0.09348000  0.46976000  0.08995000
   0.34348000  0.96975995  0.08995000
   0.59348001  0.46976000  0.08995000
   0.84347996  0.96975995  0.08995000
   0.03362000  0.22878000  0.10576000
   0.28361999  0.72877998  0.10576000
   0.53361997  0.22878000  0.10576000
   0.78362002  0.72877998  0.10576000
   0.04565707  0.83298408  0.13367898
   0.29612166  0.33394359  0.13344228
   0.54652248  0.83416219  0.13345293
   0.79580443  0.33295525  0.13400499
   0.23144935  0.09347917  0.14623517
   0.48152893  0.59366033  0.14662550
   0.73175865  0.09388788  0.14692905
   0.98169394  0.59353943  0.14691572
   0.22552106  0.55234828  0.16046696
   0.47621647  0.05144714  0.16070768
   0.72504497  0.55219009  0.16062963
   0.97533814  0.05242694  0.16072223
   0.21488180  0.89036812  0.18124301
   0.46430778  0.38955522  0.18030498
   0.71504020  0.88977737  0.18139450
   0.96515225  0.39051931  0.18185321
   0.12985194  0.33508648  0.19240685
   0.37893175  0.83524563  0.19302460
   0.62808606  0.33522101  0.19435822
   0.87976098  0.83646555  0.19326645
   0.11767760  0.67122355  0.21475806
   0.36717760  0.16988842  0.21307135
   0.61839187  0.67138122  0.21348444
   0.86805142  0.17111822  0.21576150
   0.11550693  0.13058475  0.22395431
   0.36406639  0.63135948  0.22400330
   0.61504009  0.13170429  0.22503416
   0.86406367  0.63229156  0.22492581
   0.04664958  0.89418192  0.23987575
   0.29701310  0.39591824  0.24056885
   0.54707180  0.89428955  0.24006514
   0.79595914  0.39423755  0.24130217
   0.06912405  0.49219558  0.26885294
   0.31552486  0.99232857  0.26842333
   0.56089731  0.49427410  0.26818015
   0.81317831  0.99427164  0.26832099
   0.25134800  0.75056344  0.28268290
   0.49734265  0.25012908  0.28146678
   0.75035148  0.74969389  0.28281189
   0.00460800  0.25105831  0.28150354
   0.24578487  0.21450620  0.29111536
   0.49427964  0.71333346  0.29025690
   0.74414364  0.21530410  0.29599027
   0.99450583  0.71226451  0.29306775
   0.23886334  0.55469339  0.32919349
   0.48626845  0.05300558  0.32711123
   0.73139617  0.55217491  0.32743366
   0.98965900  0.05634147  0.32948750
   0.14717269  0.00383806  0.33044292
   0.39801445  0.50515281  0.33399795
   0.64357701  0.00116402  0.33361503
   0.89629291  0.50093647  0.32807780
   0.13741873  0.32137931  0.35143579
   0.38600721  0.81956040  0.35157124
   0.62110139  0.31513088  0.35218470
   0.88974719  0.83414947  0.34640623
   0.13176884  0.79993761  0.35626040
   0.38094793  0.29976808  0.35532517
   0.62913109  0.79512608  0.35505464
   0.88995607  0.29491015  0.35593689
   0.06538376  0.54430599  0.37486725
   0.31552424  0.04348858  0.37456795
   0.57686957  0.54723645  0.37569579
   0.81536128  0.04399898  0.37434263
   0.80828137  0.66830741  0.40580311
   0.75798155  0.42068005  0.41780282
   0.83829914  0.72452787  0.42953080
   0.77562181  0.03280279  0.47357057
   0.84968450  0.85768033  0.45669189
   0.95962821  0.01855699  0.52707110
   0.85409458  0.83658303  0.52940753
   0.91568233  0.14091228  0.50339181
   0.93705872  0.03749936  0.45465490
   0.68736155  0.82271951  0.45562865
   0.79298846  0.01472802  0.54608625
   0.67995563  0.85670298  0.52629780
   0.77843947  0.66691666  0.53166696
   0.60864453  0.49820581  0.47965167
   0.57466896  0.65649518  0.51750751
   0.63930140  0.56006030  0.55586069
   0.91326236  0.05139894  0.49722708
   0.81467982  0.87199904  0.49627121
   0.81880566  0.99697160  0.50431344
   0.72009378  0.81319611  0.49638100
   0.71638984  0.69310272  0.51451121
   0.63982575  0.62802778  0.52653689
 
 position of ions in cartesian coordinates  (Angst):
   0.99045921  3.89727473  0.91670460
   4.22806168  9.97101307  0.91670460
   8.54575920  3.89727473  0.91670460
  11.78336239  9.97101307  0.91670460
   0.16045142 10.12552833  1.16817511
   4.47814847  4.05179071  1.16817511
   7.71575212 10.12552833  1.16817511
  12.03344917  4.05179071  1.16817511
   3.52054525  0.82335597  1.36714601
   6.75814868  6.89709425  1.36714601
  11.07584571  0.82335597  1.36714601
  14.31344795  6.89709425  1.36714601
   2.69052649  7.05173159  1.61861647
   7.00822400  0.97799331  1.61861647
  10.24582672  7.05173159  1.61861647
  14.56352424  0.97799331  1.61861647
   0.53942053 11.94121432  4.09909938
   4.85969621  5.87821703  4.10162314
   8.11888871 11.96124104  4.10541312
  12.40251455  5.86484955  4.15459642
   0.81280844  6.01226674  4.37805803
   4.04864670 12.08885685  4.36937247
   8.36867838  5.98880726  4.36202834
  11.60167664 12.09738391  4.37397078
  -0.17824871  2.80091517  4.58678154
   3.03804987  8.86814042  4.58708295
   7.36544864  2.78577310  4.57652260
  10.65543280  8.87197056  4.57545268
   3.35910562  2.94124284  4.81341545
   6.57271931  9.02769964  4.79221462
  10.93397624  2.98790054  4.88735519
  14.14000484  8.99661438  4.84710033
   1.16097974  7.79094337  7.53106465
   5.46294042  1.70477143  7.50554417
   8.72076806  7.87253144  7.30781868
  13.06470529  1.71206481  7.51770099
   1.48200138  1.95999660  7.49327452
   4.69984063  8.02044797  7.49623146
   8.99024560  1.93550706  7.50936654
  12.25121860  8.03701743  7.63244023
  -0.55833174 10.80509049  7.77873611
   3.74133176  4.72361826  7.79962786
   6.96564239 10.78590419  7.78597085
  11.37295989  4.66562088  8.01372338
  -0.28432611  4.94891432  8.05162894
   2.93086304 11.01994106  8.05717008
   7.23438643  4.88859672  8.01317114
  10.49847014 11.04042319  8.04622641
   9.89665326  6.68482355 10.16095639
   0.18232835  2.09604693  0.00000000
   3.41993094  8.16978550  0.00000000
   7.73762846  2.09604693  0.00000000
  10.97523117  8.16978550  0.00000000
   2.77584291  5.24248600  0.37900365
   6.01344586 11.31622410  0.37900365
  10.33114434  5.24248600  0.37900365
  13.56874656 11.31622410  0.37900365
   2.16152573 10.82255077  0.59691280
   6.47922326  4.74881268  0.59691280
   9.71682548 10.82255077  0.59691280
  14.03452396  4.74881268  0.59691280
   2.73983193  2.74654436  1.05910064
   5.97743511  8.82028293  1.05910064
  10.29513263  2.74654436  1.05910064
  13.53273487  8.82028293  1.05910064
   0.94100273  8.20246124  1.47622036
   5.25870037  2.12872362  1.47622036
   8.49630260  8.20246124  1.47622036
  12.81400013  2.12872362  1.47622036
   1.51930892  0.12645522  1.93840825
   4.75691175  6.20019341  1.93840825
   9.07460880  0.12645522  1.93840825
  12.31221104  6.20019341  1.93840825
   0.90515363  5.70639848  2.15631746
   4.14275646 11.78013610  2.15631746
   8.46045399  5.70639848  2.15631746
  11.69805622 11.78013610  2.15631746
   0.26091433  2.77909971  2.53532100
   3.49851704  8.85283756  2.53532100
   7.81621408  2.77909971  2.53532100
  11.05381775  8.85283756  2.53532100
  -0.20979583 10.11865445  3.20460604
   4.11388540  4.05657186  3.19893184
   7.35730876 10.13296553  3.19918707
  11.66545969  4.04456604  3.21242134
   3.39637231  1.13553599  3.50560810
   6.63498192  7.21147489  3.51496524
  10.95590475  1.14050079  3.52224197
  14.19290612  7.21000618  3.52192247
   2.81117023  6.70963772  3.84677831
   7.14034900  0.62495294  3.85254881
  10.35944736  6.70771608  3.85067776
  14.68131886  0.63685506  3.85289770
   2.28531124 10.81572573  4.34482996
   6.59521288  4.73211278  4.32234311
   9.84364307 10.80854959  4.34846170
  14.16223216  4.74382412  4.35945804
   1.60021561  4.07045516  4.61245413
   4.82374192 10.14612660  4.62726310
   9.12868707  4.07208927  4.65923315
  12.39025477 10.16094549  4.63306079
   1.05319424  8.15367223  5.14826629
   5.36477838  2.06371559  5.10783170
   8.61911719  8.15558750  5.11773459
  12.93195429  2.07865452  5.17232111
   1.60433515  1.58627522  5.36872233
   4.81933374  7.66942442  5.36989677
   9.15137202  1.59987473  5.39460907
  12.37358619  7.68074678  5.39201169
  -0.26089793 10.86205380  5.75039751
   4.06041706  4.80940745  5.76701291
   7.30066605 10.86336119  5.75493765
  11.60160677  4.78899132  5.78459238
   0.51288810  5.97893413  6.44505050
   3.69596138 12.05428783  6.43475164
   7.94163238  6.00418296  6.42892195
  11.21370513 12.07789126  6.43229830
   2.98733965  9.11745170  6.77658766
   7.24498307  3.03843704  6.74743443
  10.52852111  9.10688883  6.77967998
  -0.20153702  3.04972484  6.74831554
   3.48227000  2.60570897  6.97873414
   6.69839453  8.66520138  6.95815466
  11.01190849  2.61540146  7.09559737
  14.25826723  8.65221632  7.02553747
   3.01024715  6.73812485  7.89155815
   7.29055727  0.64388401  7.84164148
  10.45543421  6.70753173  7.84937088
  14.89348765  0.68440662  7.89860629
   2.21972226  0.04662275  7.92150997
   5.46862455  6.13633188  8.00673272
   9.72357787  0.01413989  7.99755313
  13.00246522  6.08511396  7.86481237
   1.72935942  3.90394759  8.42475946
   4.94759794  9.95559065  8.42800666
   9.04484376  3.82804498  8.44271272
  12.54365400 10.13281099  8.30418905
   1.12709803  9.71722320  8.54041701
   5.43257403  3.64142564  8.51799725
   8.64773712  9.65877530  8.51151212
  13.12923976  3.58241413  8.53266169
   0.40008584  6.61194413  8.98646803
   4.72078894  0.52827647  8.97929286
   8.12577840  6.64754182  9.00632991
  12.27307545  0.53447661  8.97389154
  11.49178164  8.11824852  9.72807474
  10.99918211  5.11020098 10.01573656
  11.88464478  8.80118521 10.29688450
  11.68468110  0.39847112 11.35262342
  11.91286705 10.41865161 10.94800105
  14.48051516  0.22542063 12.63515960
  12.00229316 10.16237255 12.69116933
  13.68431128  1.71172855 12.06751023
  14.11901714  0.45552259 10.89916953
   9.49783077  9.99396585 10.92251248
  11.96662418  0.17890831 13.09099842
   9.34921755 10.40677918 12.61662184
  11.04235475  8.10135433 12.74533333
   8.65887490  6.05194331 11.49840202
   7.97451617  7.97475974 12.40589746
   9.05530993  6.80331931 13.32531509
  13.74442690  0.62436742 11.91972682
  11.36845972 10.59258778 11.89681218
  11.29582145 12.11068893 12.08960378
  10.00272064  9.87828059 11.89944428
  10.07646415  8.41944890 12.33406881
   8.98982189  7.62895266 12.62235332
 


--------------------------------------------------------------------------------------------------------


 k-point  1 :   0.2500 0.2500 0.0000  plane waves:  111683
 k-point  2 :  -0.2500 0.2500 0.0000  plane waves:  111725

 maximum and minimum number of plane-waves per node :      7001     6957

 maximum number of plane-waves:    111725
 maximum index in each direction: 
   IXMAX=   27   IYMAX=   21   IZMAX=   43
   IXMIN=  -27   IYMIN=  -22   IZMIN=  -43


 real space projection operators:
  total allocation   :      22452.64 KBytes
  max/ min on nodes  :       1644.84       1286.06


 parallel 3D FFT for wavefunctions:
    minimum data exchange during FFTs selected (reduces bandwidth)
 parallel 3D FFT for charge:
    minimum data exchange during FFTs selected (reduces bandwidth)


 total amount of memory used by VASP MPI-rank0    92411. kBytes
=======================================================================

   base      :      30000. kBytes
   nonlr-proj:       9148. kBytes
   fftplans  :       4220. kBytes
   grid      :      12288. kBytes
   one-center:        342. kBytes
   wavefun   :      36413. kBytes
 
     INWAV:  cpu time   37.3328: real time   37.3160
 Broyden mixing: mesh for mixing (old mesh)
   NGX = 55   NGY = 45   NGZ = 87
  (NGX  =168   NGY  =140   NGZ  =280)
  gives a total of 215325 points

 initial charge density was supplied:
 number of electron    1214.0000112 magnetization      -0.0000000
 keeping initial charge density in first step


--------------------------------------------------------------------------------------------------------


 Maximum index for non-local projection operator          419
 Maximum index for augmentation-charges          475 (set IRDMAX)


--------------------------------------------------------------------------------------------------------


 First call to EWALD:  gamma=   0.108
 Maximum number of real-space cells 3x 4x 2
 Maximum number of reciprocal cells 3x 2x 4

    FEWALD:  cpu time    0.0204: real time    0.0204


--------------------------------------- Iteration      1(   1)  ---------------------------------------


    POTLOK:  cpu time    0.4796: real time    0.4938
    SETDIJ:  cpu time    0.0781: real time    0.0794
     EDDAV:  cpu time   25.6871: real time   25.6806
       DOS:  cpu time    0.0032: real time    0.0032
    CHARGE:  cpu time    1.0726: real time    1.0720
    MIXING:  cpu time    0.0588: real time    0.0611
    --------------------------------------------
      LOOP:  cpu time   27.3798: real time   27.3905

 eigenvalue-minimisations  :  6272
 total energy-change (2. order) :-0.1377335E+04  (-0.1359670E+00)
 number of electron    1214.0000112 magnetization      -0.0000000
 augmentation part       74.0626789 magnetization       0.0000000

 Broyden mixing:
  rms(total) = 0.95373E-01    rms(broyden)= 0.95293E-01
  rms(prec ) = 0.96646E-01
  weight for this iteration     100.00

 Free energy of the ion-electron system (eV)
  ---------------------------------------------------
  alpha Z        PSCENC =      2166.38705829
  Ewald energy   TEWEN  =    386038.88708316
  -Hartree energ DENC   =   -483200.19580342
  -exchange      EXHF   =         0.00000000
  -V(xc)+E(xc)   XCENC  =      5336.93964117
  PAW double counting   =    130108.88344760  -129431.74355745
  entropy T*S    EENTRO =        -0.00000000
  eigenvalues    EBANDS =    -18751.75934223
  atomic energy  EATOM  =    106355.26625530
  Solvation  Ediel_sol  =         0.00000000
  ---------------------------------------------------
  free energy    TOTEN  =     -1377.33521758 eV

  energy without entropy =    -1377.33521758  energy(sigma->0) =    -1377.33521758


--------------------------------------------------------------------------------------------------------




--------------------------------------- Iteration      1(   2)  ---------------------------------------


    POTLOK:  cpu time    0.4508: real time    0.4508
    SETDIJ:  cpu time    0.0764: real time    0.0763
     EDDAV:  cpu time   25.7137: real time   25.6835
       DOS:  cpu time    0.0020: real time    0.0020
    CHARGE:  cpu time    1.0942: real time    1.0929
    MIXING:  cpu time    0.0244: real time    0.0256
    --------------------------------------------
      LOOP:  cpu time   27.3615: real time   27.3312

 eigenvalue-minimisations  :  6208
 total energy-change (2. order) :-0.1760291E+01  (-0.1211466E+00)
 number of electron    1214.0000112 magnetization      -0.0000000
 augmentation part       73.9875262 magnetization       0.0000000

 Broyden mixing:
  rms(total) = 0.41332E-01    rms(broyden)= 0.41214E-01
  rms(prec ) = 0.43505E-01
  weight for this iteration     100.00

 eigenvalues of (default mixing * dielectric matrix)
  average eigenvalue GAMMA=   0.7366
  0.7366

 Free energy of the ion-electron system (eV)
  ---------------------------------------------------
  alpha Z        PSCENC =      2166.38705829
  Ewald energy   TEWEN  =    386038.88708316
  -Hartree energ DENC   =   -483201.08026607
  -exchange      EXHF   =         0.00000000
  -V(xc)+E(xc)   XCENC  =      5337.03302230
  PAW double counting   =    129965.16583402  -129286.97871564
  entropy T*S    EENTRO =        -0.00000000
  eigenvalues    EBANDS =    -18753.77577995
  atomic energy  EATOM  =    106355.26625530
  Solvation  Ediel_sol  =         0.00000000
  ---------------------------------------------------
  free energy    TOTEN  =     -1379.09550859 eV

  energy without entropy =    -1379.09550859  energy(sigma->0) =    -1379.09550859


--------------------------------------------------------------------------------------------------------




--------------------------------------- Iteration      1(   3)  ---------------------------------------


    POTLOK:  cpu time    0.4354: real time    0.4512
    SETDIJ:  cpu time    0.0767: real time    0.0767
     EDDAV:  cpu time   27.4000: real time   27.3432
       DOS:  cpu time    0.0034: real time    0.0954
    CHARGE:  cpu time    1.0983: real time    1.0970
    MIXING:  cpu time    0.0081: real time    0.0081
    --------------------------------------------
      LOOP:  cpu time   29.0217: real time   29.0715

 eigenvalue-minimisations  :  6720
 total energy-change (2. order) :-0.9894800E-02  (-0.4352231E-02)
 number of electron    1214.0000112 magnetization      -0.0000000
 augmentation part       74.0199834 magnetization       0.0000000

 Broyden mixing:
  rms(total) = 0.27914E-01    rms(broyden)= 0.27897E-01
  rms(prec ) = 0.28341E-01
  weight for this iteration     100.00

 eigenvalues of (default mixing * dielectric matrix)
  average eigenvalue GAMMA=   0.6937
  0.6937  0.6937

 Free energy of the ion-electron system (eV)
  ---------------------------------------------------
  alpha Z        PSCENC =      2166.38705829
  Ewald energy   TEWEN  =    386038.88708316
  -Hartree energ DENC   =   -483198.66919458
  -exchange      EXHF   =         0.00000000
  -V(xc)+E(xc)   XCENC  =      5336.83789693
  PAW double counting   =    129991.06726747  -129312.11581578
  entropy T*S    EENTRO =        -0.00000000
  eigenvalues    EBANDS =    -18756.76595419
  atomic energy  EATOM  =    106355.26625530
  Solvation  Ediel_sol  =         0.00000000
  ---------------------------------------------------
  free energy    TOTEN  =     -1379.10540339 eV

  energy without entropy =    -1379.10540339  energy(sigma->0) =    -1379.10540339


--------------------------------------------------------------------------------------------------------




--------------------------------------- Iteration      1(   4)  ---------------------------------------


    POTLOK:  cpu time    0.4479: real time    0.4501
    SETDIJ:  cpu time    0.0764: real time    0.0764
     EDDAV:  cpu time   23.8285: real time   23.7799
       DOS:  cpu time    0.0020: real time    0.0020
    CHARGE:  cpu time    1.0962: real time    1.0950
    MIXING:  cpu time    0.0090: real time    0.0095
    --------------------------------------------
      LOOP:  cpu time   25.4602: real time   25.4129

 eigenvalue-minimisations  :  5600
 total energy-change (2. order) :-0.4586110E-04  (-0.2179754E-03)
 number of electron    1214.0000112 magnetization      -0.0000000
 augmentation part       74.0163723 magnetization       0.0000000

 Broyden mixing:
  rms(total) = 0.22510E-01    rms(broyden)= 0.22509E-01
  rms(prec ) = 0.22826E-01
  weight for this iteration     100.00

 eigenvalues of (default mixing * dielectric matrix)
  average eigenvalue GAMMA=   0.6854
  0.7716  0.7716  0.5131

 Free energy of the ion-electron system (eV)
  ---------------------------------------------------
  alpha Z        PSCENC =      2166.38705829
  Ewald energy   TEWEN  =    386038.88708316
  -Hartree energ DENC   =   -483199.47238644
  -exchange      EXHF   =         0.00000000
  -V(xc)+E(xc)   XCENC  =      5336.90745703
  PAW double counting   =    130020.88470927  -129341.88280226
  entropy T*S    EENTRO =        -0.00000000
  eigenvalues    EBANDS =    -18756.08282359
  atomic energy  EATOM  =    106355.26625530
  Solvation  Ediel_sol  =         0.00000000
  ---------------------------------------------------
  free energy    TOTEN  =     -1379.10544925 eV

  energy without entropy =    -1379.10544925  energy(sigma->0) =    -1379.10544925


--------------------------------------------------------------------------------------------------------




--------------------------------------- Iteration      1(   5)  ---------------------------------------


    POTLOK:  cpu time    0.4486: real time    0.4484
    SETDIJ:  cpu time    0.0771: real time    0.0770
     EDDAV:  cpu time   27.6194: real time   27.5688
       DOS:  cpu time    0.0023: real time    0.0023
    CHARGE:  cpu time    1.0968: real time    1.0955
    MIXING:  cpu time    0.0089: real time    0.0089
    --------------------------------------------
      LOOP:  cpu time   29.2531: real time   29.2009

 eigenvalue-minimisations  :  6784
 total energy-change (2. order) :-0.2406887E-05  (-0.2028701E-04)
 number of electron    1214.0000112 magnetization      -0.0000000
 augmentation part       74.0221497 magnetization      -0.0000000

 Broyden mixing:
  rms(total) = 0.18960E-01    rms(broyden)= 0.18960E-01
  rms(prec ) = 0.19227E-01
  weight for this iteration     100.00

 eigenvalues of (default mixing * dielectric matrix)
  average eigenvalue GAMMA=   0.7309
  0.9128  0.9128  0.5490  0.5490

 Free energy of the ion-electron system (eV)
  ---------------------------------------------------
  alpha Z        PSCENC =      2166.38705829
  Ewald energy   TEWEN  =    386038.88708316
  -Hartree energ DENC   =   -483199.56668034
  -exchange      EXHF   =         0.00000000
  -V(xc)+E(xc)   XCENC  =      5336.91130390
  PAW double counting   =    130038.80394461  -129359.76566025
  entropy T*S    EENTRO =        -0.00000000
  eigenvalues    EBANDS =    -18756.02875632
  atomic energy  EATOM  =    106355.26625530
  Solvation  Ediel_sol  =         0.00000000
  ---------------------------------------------------
  free energy    TOTEN  =     -1379.10545166 eV

  energy without entropy =    -1379.10545166  energy(sigma->0) =    -1379.10545166


--------------------------------------------------------------------------------------------------------




--------------------------------------- Iteration      1(   6)  ---------------------------------------


    POTLOK:  cpu time    0.4266: real time    0.4529
    SETDIJ:  cpu time    0.0770: real time    0.0769
     EDDAV:  cpu time   27.0081: real time   26.9524
       DOS:  cpu time    0.0022: real time    0.0022
    CHARGE:  cpu time    1.0892: real time    1.0879
    MIXING:  cpu time    0.0097: real time    0.0097
    --------------------------------------------
      LOOP:  cpu time   28.6128: real time   28.5821

 eigenvalue-minimisations  :  6592
 total energy-change (2. order) :-0.9765572E-05  (-0.2514153E-05)
 number of electron    1214.0000112 magnetization      -0.0000000
 augmentation part       74.0234397 magnetization       0.0000000

 Broyden mixing:
  rms(total) = 0.16273E-01    rms(broyden)= 0.16273E-01
  rms(prec ) = 0.16513E-01
  weight for this iteration     100.00

 eigenvalues of (default mixing * dielectric matrix)
  average eigenvalue GAMMA=   0.7921
  1.1213  1.1213  0.5188  0.5994  0.5994

 Free energy of the ion-electron system (eV)
  ---------------------------------------------------
  alpha Z        PSCENC =      2166.38705829
  Ewald energy   TEWEN  =    386038.88708316
  -Hartree energ DENC   =   -483199.71046613
  -exchange      EXHF   =         0.00000000
  -V(xc)+E(xc)   XCENC  =      5336.91949054
  PAW double counting   =    130053.85296976  -129374.80243706
  entropy T*S    EENTRO =        -0.00000000
  eigenvalues    EBANDS =    -18755.90541529
  atomic energy  EATOM  =    106355.26625530
  Solvation  Ediel_sol  =         0.00000000
  ---------------------------------------------------
  free energy    TOTEN  =     -1379.10546142 eV

  energy without entropy =    -1379.10546142  energy(sigma->0) =    -1379.10546142


--------------------------------------------------------------------------------------------------------




--------------------------------------- Iteration      1(   7)  ---------------------------------------


    POTLOK:  cpu time    0.4233: real time    0.4508
    SETDIJ:  cpu time    0.0771: real time    0.0771
     EDDAV:  cpu time   27.3643: real time   27.3147
       DOS:  cpu time    0.0023: real time    0.0023
    CHARGE:  cpu time    1.0947: real time    1.0932
    MIXING:  cpu time    0.0101: real time    0.0101
    --------------------------------------------
      LOOP:  cpu time   28.9718: real time   28.9481

 eigenvalue-minimisations  :  6720
 total energy-change (2. order) :-0.4447633E-05  (-0.2339451E-05)
 number of electron    1214.0000112 magnetization      -0.0000000
 augmentation part       74.0249427 magnetization       0.0000000

 Broyden mixing:
  rms(total) = 0.13148E-01    rms(broyden)= 0.13148E-01
  rms(prec ) = 0.13339E-01
  weight for this iteration     100.00

 eigenvalues of (default mixing * dielectric matrix)
  average eigenvalue GAMMA=   0.8690
  1.3576  1.3576  0.6956  0.6956  0.5539  0.5539

 Free energy of the ion-electron system (eV)
  ---------------------------------------------------
  alpha Z        PSCENC =      2166.38705829
  Ewald energy   TEWEN  =    386038.88708316
  -Hartree energ DENC   =   -483199.77920927
  -exchange      EXHF   =         0.00000000
  -V(xc)+E(xc)   XCENC  =      5336.92455251
  PAW double counting   =    130070.42061115  -129391.35744596
  entropy T*S    EENTRO =        -0.00000000
  eigenvalues    EBANDS =    -18755.85437106
  atomic energy  EATOM  =    106355.26625530
  Solvation  Ediel_sol  =         0.00000000
  ---------------------------------------------------
  free energy    TOTEN  =     -1379.10546587 eV

  energy without entropy =    -1379.10546587  energy(sigma->0) =    -1379.10546587


--------------------------------------------------------------------------------------------------------




--------------------------------------- Iteration      1(   8)  ---------------------------------------


    POTLOK:  cpu time    0.4422: real time    0.4527
    SETDIJ:  cpu time    0.0771: real time    0.0770
     EDDAV:  cpu time   26.0339: real time   25.9901
       DOS:  cpu time    0.0021: real time    0.0021
    CHARGE:  cpu time    1.1008: real time    1.0996
    MIXING:  cpu time    0.0107: real time    0.0107
    --------------------------------------------
      LOOP:  cpu time   27.6666: real time   27.6321

 eigenvalue-minimisations  :  6240
 total energy-change (2. order) :-0.4145637E-05  (-0.1970519E-05)
 number of electron    1214.0000112 magnetization      -0.0000000
 augmentation part       74.0263129 magnetization       0.0000000

 Broyden mixing:
  rms(total) = 0.10640E-01    rms(broyden)= 0.10640E-01
  rms(prec ) = 0.10787E-01
  weight for this iteration     100.00

 eigenvalues of (default mixing * dielectric matrix)
  average eigenvalue GAMMA=   0.9189
  1.5884  1.5884  0.7727  0.7727  0.5358  0.5871  0.5871

 Free energy of the ion-electron system (eV)
  ---------------------------------------------------
  alpha Z        PSCENC =      2166.38705829
  Ewald energy   TEWEN  =    386038.88708316
  -Hartree energ DENC   =   -483199.83310252
  -exchange      EXHF   =         0.00000000
  -V(xc)+E(xc)   XCENC  =      5336.92785875
  PAW double counting   =    130083.91149518  -129404.83874250
  entropy T*S    EENTRO =        -0.00000000
  eigenvalues    EBANDS =    -18755.81337567
  atomic energy  EATOM  =    106355.26625530
  Solvation  Ediel_sol  =         0.00000000
  ---------------------------------------------------
  free energy    TOTEN  =     -1379.10547002 eV

  energy without entropy =    -1379.10547002  energy(sigma->0) =    -1379.10547002


--------------------------------------------------------------------------------------------------------




--------------------------------------- Iteration      1(   9)  ---------------------------------------


    POTLOK:  cpu time    0.4240: real time    0.4555
    SETDIJ:  cpu time    0.0768: real time    0.0768
     EDDAV:  cpu time   21.0301: real time   20.9910
       DOS:  cpu time    0.0021: real time    0.0021
    CHARGE:  cpu time    1.0985: real time    1.0973
    MIXING:  cpu time    0.0109: real time    0.0109
    --------------------------------------------
      LOOP:  cpu time   22.6424: real time   22.6336

 eigenvalue-minimisations  :  4640
 total energy-change (2. order) :-0.4187372E-05  (-0.6184767E-06)
 number of electron    1214.0000112 magnetization      -0.0000000
 augmentation part       74.0273428 magnetization       0.0000000

 Broyden mixing:
  rms(total) = 0.89545E-02    rms(broyden)= 0.89545E-02
  rms(prec ) = 0.90798E-02
  weight for this iteration     100.00

 eigenvalues of (default mixing * dielectric matrix)
  average eigenvalue GAMMA=   1.0231
  1.9573  1.9573  0.9049  0.9049  0.6564  0.6564  0.5739  0.5739

 Free energy of the ion-electron system (eV)
  ---------------------------------------------------
  alpha Z        PSCENC =      2166.38705829
  Ewald energy   TEWEN  =    386038.88708316
  -Hartree energ DENC   =   -483199.86853715
  -exchange      EXHF   =         0.00000000
  -V(xc)+E(xc)   XCENC  =      5336.92957649
  PAW double counting   =    130092.95722439  -129413.88103610
  entropy T*S    EENTRO =        -0.00000000
  eigenvalues    EBANDS =    -18755.78309859
  atomic energy  EATOM  =    106355.26625530
  Solvation  Ediel_sol  =         0.00000000
  ---------------------------------------------------
  free energy    TOTEN  =     -1379.10547420 eV

  energy without entropy =    -1379.10547420  energy(sigma->0) =    -1379.10547420


--------------------------------------------------------------------------------------------------------




--------------------------------------- Iteration      1(  10)  ---------------------------------------


    POTLOK:  cpu time    0.4406: real time    0.4501
    SETDIJ:  cpu time    0.0769: real time    0.0768
     EDDAV:  cpu time   25.2800: real time   25.2380
       DOS:  cpu time    0.0023: real time    0.0023
    CHARGE:  cpu time    1.0939: real time    1.0924
    MIXING:  cpu time    0.0114: real time    0.0114
    --------------------------------------------
      LOOP:  cpu time   26.9051: real time   26.8711

 eigenvalue-minimisations  :  6016
 total energy-change (2. order) :-0.4257352E-05  (-0.1318547E-05)
 number of electron    1214.0000112 magnetization      -0.0000000
 augmentation part       74.0284060 magnetization       0.0000000

 Broyden mixing:
  rms(total) = 0.61744E-02    rms(broyden)= 0.61744E-02
  rms(prec ) = 0.62656E-02
  weight for this iteration     100.00

 eigenvalues of (default mixing * dielectric matrix)
  average eigenvalue GAMMA=   1.1370
[...]
   -2.8619369704E-02    1.1276641152E-02   -3.3511958534E-03
   -2.2112261632E-02    2.6661914978E-02    5.1079219053E-03
   -2.6110947725E-04    6.1266005635E-03   -8.3459541464E-03
   -1.3640867888E-02   -9.2272238050E-03    1.0022359501E-02
    1.2523689506E-02    5.1955857634E-02   -4.3872404871E-03
    6.5879990780E-03    2.9437500632E-02   -4.7857118795E-03
   -5.1810618234E-03    1.1858509817E-02   -5.6244405641E-03
    1.3528002376E-02   -1.2370345493E-02   -2.3115976906E-02
   -9.6146612563E-03    4.4108551103E-02    7.5586620730E-02
   -7.1742261634E-03    1.3028479468E-02   -6.2163064592E-03
   -4.1174066179E-03    1.5539542419E-02    4.1928642004E-03
   -4.8320740112E-03   -1.9080301899E-02    4.0378850201E-02
   -2.8568323555E-03    3.0868325983E-03    5.6728128768E-03
    6.0498755266E-02    1.8950651488E-01    4.9151150720E-02
    0.0000000000E+00    0.0000000000E+00    0.0000000000E+00
    0.0000000000E+00    0.0000000000E+00    0.0000000000E+00
    0.0000000000E+00    0.0000000000E+00    0.0000000000E+00
    0.0000000000E+00    0.0000000000E+00    0.0000000000E+00
    0.0000000000E+00    0.0000000000E+00    0.0000000000E+00
    0.0000000000E+00    0.0000000000E+00    0.0000000000E+00
    0.0000000000E+00    0.0000000000E+00    0.0000000000E+00
    0.0000000000E+00    0.0000000000E+00    0.0000000000E+00
    0.0000000000E+00    0.0000000000E+00    0.0000000000E+00
    0.0000000000E+00    0.0000000000E+00    0.0000000000E+00
    0.0000000000E+00    0.0000000000E+00    0.0000000000E+00
    0.0000000000E+00    0.0000000000E+00    0.0000000000E+00
    0.0000000000E+00    0.0000000000E+00    0.0000000000E+00
    0.0000000000E+00    0.0000000000E+00    0.0000000000E+00
    0.0000000000E+00    0.0000000000E+00    0.0000000000E+00
    0.0000000000E+00    0.0000000000E+00    0.0000000000E+00
    0.0000000000E+00    0.0000000000E+00    0.0000000000E+00
    0.0000000000E+00    0.0000000000E+00    0.0000000000E+00
    0.0000000000E+00    0.0000000000E+00    0.0000000000E+00
    0.0000000000E+00    0.0000000000E+00    0.0000000000E+00
    0.0000000000E+00    0.0000000000E+00    0.0000000000E+00
    0.0000000000E+00    0.0000000000E+00    0.0000000000E+00
    0.0000000000E+00    0.0000000000E+00    0.0000000000E+00
    0.0000000000E+00    0.0000000000E+00    0.0000000000E+00
    0.0000000000E+00    0.0000000000E+00    0.0000000000E+00
    0.0000000000E+00    0.0000000000E+00    0.0000000000E+00
    0.0000000000E+00    0.0000000000E+00    0.0000000000E+00
    0.0000000000E+00    0.0000000000E+00    0.0000000000E+00
    0.0000000000E+00    0.0000000000E+00    0.0000000000E+00
    0.0000000000E+00    0.0000000000E+00    0.0000000000E+00
    0.0000000000E+00    0.0000000000E+00    0.0000000000E+00
    0.0000000000E+00    0.0000000000E+00    0.0000000000E+00
   -1.2209858075E-02    3.5368942149E-02   -3.1114005956E-03
    3.8385920286E-03    2.2338309811E-03    2.7505206342E-04
    1.9261434676E-03   -4.1455364334E-03   -1.1188559290E-02
    1.6076091620E-02   -7.5303585523E-03    9.6157511566E-03
   -8.4527923567E-03    1.7908289712E-04   -9.3560142917E-03
    1.9210176443E-02   -1.6463058667E-02   -5.2382647112E-03
    1.2199627198E-02    9.1292765027E-04   -2.3105845195E-03
    1.0926827352E-02    1.7178348875E-02   -1.8376354898E-03
    2.1713543149E-03    6.4575961069E-03   -8.2498176207E-03
    2.5267879066E-02    5.5882843313E-05    5.4564490027E-04
   -1.1079832240E-02    4.9528196353E-03   -6.2236928493E-03
   -1.0619401315E-02    2.8345520620E-02    9.9492613103E-03
    4.0716720902E-02    9.3876519683E-03   -9.2148184386E-02
    5.6880259033E-03    1.2288717145E-02    5.2636259641E-03
    2.2359191348E-02   -3.0930590197E-02   -4.5293888121E-02
   -1.4131479472E-02    2.4154278143E-02    5.3983008013E-02
   -7.8810313151E-03    9.8637379971E-03   -1.8197440409E-02
    5.7079148372E-03   -7.7586763426E-03    1.7361013624E-02
   -3.1002459436E-03   -1.2819744563E-02   -1.1298482466E-02
    2.2189298583E-02    1.5906580653E-02    3.6726949969E-02
    4.1047868921E-03    1.2833116036E-02   -2.5912289587E-03
   -7.7021850023E-03   -5.9406319873E-03    1.0285310449E-02
    2.4528112069E-02   -7.3544921439E-02    2.2993016532E-02
   -7.8055436832E-03    2.5528582147E-02    5.3028769121E-02
    1.4001453129E-03    1.5368376861E-02    8.6095911649E-03
    8.1831077821E-03    5.7907550068E-03   -2.2437956768E-02
    3.4904471807E-02   -7.9603011903E-03   -3.4281025459E-03
    1.0345830363E-02    7.2366891479E-03   -8.9700207832E-04
    1.9051276854E-02   -3.3907923618E-03   -2.2335317623E-03
    3.0059460379E-03   -3.4582650662E-03    8.8863983184E-03
    4.9251027883E-02   -9.1946709073E-02   -4.4673200763E-02
   -1.5647095380E-01    6.5123644928E-02    2.1361973568E-02
   -1.2742146651E-02    2.8707617688E-02   -1.2667662234E-03
   -2.3646826059E-02    5.1401779184E-03   -4.4493487682E-03
    5.1356705562E-02   -6.1710354547E-02    2.4108763965E-02
   -4.0875439541E-02    2.0900587875E-02   -1.5425875308E-02
    7.2733864143E-03   -6.6826734833E-03   -1.5539000208E-03
    1.9564653449E-02    1.4838996051E-02   -3.0892744865E-02
    1.4145022020E-03    6.9099474266E-03    2.1809718043E-03
   -3.4469775877E-02    9.9264759304E-03    7.4154473181E-03
   -3.0967911481E-02    4.0594069620E-02   -6.4634357104E-03
   -1.1691319545E-02   -9.4259035195E-03   -1.1427494653E-02
   -2.2669908154E-02    6.4428397625E-02    4.0702442721E-02
    1.9109889661E-02    3.3656858403E-02    8.8035653557E-03
    2.6226147477E-03    6.1957369078E-03   -1.7512895147E-02
    7.3100252812E-03    5.6861555871E-03   -6.4601543323E-02
    2.2336659332E-02    6.1683294283E-02    1.0092370210E-01
   -2.7803418709E-02    3.3986818861E-02   -2.4669300645E-02
   -2.2954847297E-02    6.2607289651E-03   -4.8486886562E-03
   -8.7066022279E-03    1.0013129256E-02   -1.0959477208E-02
   -8.0317179325E-03   -2.1728953537E-02   -2.2214217218E-02
   -3.1615822666E-02    1.4518200415E-02    2.4096849388E-02
   -6.6139890537E-03    1.4549698221E-02    1.8701878945E-02
    6.7658544922E-03    3.9745944818E-03   -8.6574521857E-04
   -1.4538212575E-01   -1.3841200207E-01    1.3658850804E-01
    2.2499160090E-02    3.2776488602E-02   -2.1607728738E-02
    3.0330386026E-02    4.3388836839E-02   -1.8942965782E-03
   -8.8282586002E-03   -4.1569463513E-03   -3.3365098944E-02
    4.9872395471E-03   -1.9951557414E-02    8.8986829380E-03
   -2.3555243030E-02    7.6170715169E-03    1.8965251962E-02
   -4.1785304923E-03    1.2352196636E-02   -1.7305190645E-02
    3.0669450554E-03    2.8598035921E-02   -2.1859932507E-02
    2.4715257267E-03   -1.9652853311E-02    1.0371380273E-01
   -2.2351725397E-02   -6.0815367279E-03    4.3305946044E-03
    8.5187218754E-02    3.1889956634E-02   -1.5049197995E-02
   -1.0888296201E-01    7.0894810344E-02    9.9467728380E-02
    4.8182068696E-02    1.5586482296E-02    2.1364863888E-02
   -2.2209860851E-02   -6.6677017002E-02   -2.5871660912E-03
    3.0530938154E-03   -5.0859566959E-02   -1.4745918402E-02
   -2.4437797222E-02   -4.2457941942E-02   -7.9476495440E-03
   -8.6888839422E-03   -6.7608788565E-02   -1.5244094530E-02
   -4.2018760864E-02   -5.6258039321E-02   -6.1058887903E-03
   -2.2615085425E-02   -4.7067575383E-02   -9.1000614049E-03
   -1.3728130115E-02   -1.5909924923E-02   -4.9336570316E-03
   -2.5473699121E-02   -7.0101815517E-02   -5.6516865411E-03
    1.4748860107E-02   -1.7657194203E-01    3.1654679943E-02
   -8.1030807937E-04   -1.3968157523E-01   -5.7337033983E-02
   -3.9946456241E-04    5.6919420987E-01    2.2819516151E-01
   -4.3013380239E-04   -9.7344204385E-02    3.0448390672E-03
   -4.7507126787E-02   -1.2500244721E-02    1.3027802953E-01
   -2.9681383795E-02   -5.4445386161E-02   -1.1880212950E-02
   -1.0315444403E-02   -7.9805198869E-02   -1.8543724444E-02
   -2.2278062317E-02   -6.8591131402E-02   -2.5201389035E-03
   -5.3655505288E-04   -1.2497309619E-01   -2.0640314422E-02
    6.8540212460E-02   -2.0298420825E-01   -2.0074063230E-01
   -4.1184346144E-02   -2.3960553393E-01   -1.2264020505E-01
 Dimer: -----------------
 Dimer: Itr    1 Rot    0

 Dimer: Central Point
 Dimer: F0      0.152494

 Dimer: Projection
 Dimer: N*F0  3.313776811191742E-002
 Dimer: F0sq  2.325440306828949E-002
 Dimer: Feffsq   1.098111675439211E-003
 Dimer: Feff
    0.0000000000E+00    0.0000000000E+00    0.0000000000E+00
    0.0000000000E+00    0.0000000000E+00    0.0000000000E+00
    0.0000000000E+00    0.0000000000E+00    0.0000000000E+00
    0.0000000000E+00    0.0000000000E+00    0.0000000000E+00
    0.0000000000E+00    0.0000000000E+00    0.0000000000E+00
    0.0000000000E+00    0.0000000000E+00    0.0000000000E+00
    0.0000000000E+00    0.0000000000E+00    0.0000000000E+00
    0.0000000000E+00    0.0000000000E+00    0.0000000000E+00
    0.0000000000E+00    0.0000000000E+00    0.0000000000E+00
    0.0000000000E+00    0.0000000000E+00    0.0000000000E+00
    0.0000000000E+00    0.0000000000E+00    0.0000000000E+00
    0.0000000000E+00    0.0000000000E+00    0.0000000000E+00
    0.0000000000E+00    0.0000000000E+00    0.0000000000E+00
    0.0000000000E+00    0.0000000000E+00    0.0000000000E+00
    0.0000000000E+00    0.0000000000E+00    0.0000000000E+00
    0.0000000000E+00    0.0000000000E+00    0.0000000000E+00
   -3.9721625200E-04   -2.4829212216E-04    6.0372240796E-05
   -1.8439894896E-04    1.0950970339E-05    1.1494604163E-04
   -6.0676938992E-04    2.1505368325E-04    1.2264958754E-04
    5.0973080041E-04   -2.0325014509E-04   -4.0037562599E-04
   -6.3186059693E-05   -4.6359429404E-04    4.2021912518E-05
   -3.7740550996E-04    4.6861126319E-05    1.7776834612E-04
   -3.7901203757E-04    4.9631695491E-04   -2.8703865352E-04
    1.6803509843E-05   -7.3468532259E-05   -5.0258444096E-05
    2.5123012093E-04   -3.4599289773E-04   -4.6897626252E-06
   -4.3143811195E-04   -5.0701081400E-05    2.3939752198E-04
   -2.8145417944E-04    8.4240182900E-05   -3.9025978475E-05
   -2.0068588565E-04    1.9708136879E-04   -1.2431502279E-04
    2.5284752671E-04   -2.2109042097E-04    8.3007537142E-05
   -4.3520792390E-04    6.7254008646E-04    5.8608187775E-04
    2.6153783453E-04   -4.0825064394E-04   -6.4965665422E-04
   -3.2863685643E-04   -3.0753666175E-04    9.6690546717E-05
   -2.1886717280E-04   -6.4692953560E-04    8.0303574295E-05
    2.6353931244E-04   -4.1491831818E-04    1.1506731867E-03
    4.5384062017E-04    9.7482059652E-04   -8.8103054464E-04
    9.4838203676E-04   -3.7368271958E-04    1.1105115109E-04
    7.3275099839E-04   -8.8351635596E-04   -1.6926513163E-04
    8.6525853089E-06   -2.0302186879E-04    2.7656629318E-04
    4.5202791692E-04    3.0576960277E-04   -3.3211862508E-04
   -4.1500711875E-04   -1.7217011623E-03    1.4538335791E-04
   -2.1831158577E-04   -9.7549306974E-04    1.5858781051E-04
    1.7168882528E-04   -3.9296454847E-04    1.8638140717E-04
   -4.4828780575E-04    4.0992564041E-04    7.6601188239E-04
    3.1860841519E-04   -1.4616589382E-03   -2.5047719101E-03
    2.3773784298E-04   -4.3173473146E-04    2.0599452196E-04
    1.3644166573E-04   -5.1494575325E-04   -1.3894216160E-04
    1.6012414808E-04    6.3227861983E-04   -1.3380649746E-03
    9.4669048131E-05   -1.0229074284E-04   -1.8798435765E-04
   -2.0047937231E-03   -6.2798229458E-03   -1.6287594350E-03
    0.0000000000E+00    0.0000000000E+00    0.0000000000E+00
    0.0000000000E+00    0.0000000000E+00    0.0000000000E+00
    0.0000000000E+00    0.0000000000E+00    0.0000000000E+00
    0.0000000000E+00    0.0000000000E+00    0.0000000000E+00
    0.0000000000E+00    0.0000000000E+00    0.0000000000E+00
    0.0000000000E+00    0.0000000000E+00    0.0000000000E+00
    0.0000000000E+00    0.0000000000E+00    0.0000000000E+00
    0.0000000000E+00    0.0000000000E+00    0.0000000000E+00
    0.0000000000E+00    0.0000000000E+00    0.0000000000E+00
    0.0000000000E+00    0.0000000000E+00    0.0000000000E+00
    0.0000000000E+00    0.0000000000E+00    0.0000000000E+00
    0.0000000000E+00    0.0000000000E+00    0.0000000000E+00
    0.0000000000E+00    0.0000000000E+00    0.0000000000E+00
    0.0000000000E+00    0.0000000000E+00    0.0000000000E+00
    0.0000000000E+00    0.0000000000E+00    0.0000000000E+00
    0.0000000000E+00    0.0000000000E+00    0.0000000000E+00
    0.0000000000E+00    0.0000000000E+00    0.0000000000E+00
    0.0000000000E+00    0.0000000000E+00    0.0000000000E+00
    0.0000000000E+00    0.0000000000E+00    0.0000000000E+00
    0.0000000000E+00    0.0000000000E+00    0.0000000000E+00
    0.0000000000E+00    0.0000000000E+00    0.0000000000E+00
    0.0000000000E+00    0.0000000000E+00    0.0000000000E+00
    0.0000000000E+00    0.0000000000E+00    0.0000000000E+00
    0.0000000000E+00    0.0000000000E+00    0.0000000000E+00
    0.0000000000E+00    0.0000000000E+00    0.0000000000E+00
    0.0000000000E+00    0.0000000000E+00    0.0000000000E+00
    0.0000000000E+00    0.0000000000E+00    0.0000000000E+00
    0.0000000000E+00    0.0000000000E+00    0.0000000000E+00
    0.0000000000E+00    0.0000000000E+00    0.0000000000E+00
    0.0000000000E+00    0.0000000000E+00    0.0000000000E+00
    0.0000000000E+00    0.0000000000E+00    0.0000000000E+00
    0.0000000000E+00    0.0000000000E+00    0.0000000000E+00
    4.0460744557E-04   -1.1720478033E-03    1.0310487144E-04
   -1.2720237252E-04   -7.4024173053E-05   -9.1146114963E-06
   -6.3828095579E-05    1.3737382503E-04    3.7076388326E-04
   -5.3272579625E-04    2.4953927551E-04   -3.1864453205E-04
    2.8010667301E-04   -5.9344075176E-06    3.1003743205E-04
   -6.3658237236E-04    5.4554902052E-04    1.7358440131E-04
   -4.0426841714E-04   -3.0252384778E-05    7.6567614010E-05
   -3.6209067099E-04   -5.6925214156E-04    6.0895138735E-05
   -7.1953835776E-05   -2.1399032235E-04    2.7338054328E-04
   -8.3732111717E-04   -1.8518327031E-06   -1.8081454177E-05
    3.6716091149E-04   -1.6412538857E-04    2.0623929044E-04
    3.5190325826E-04   -9.3930728932E-04   -3.2969631418E-04
   -1.3492612555E-03   -3.1108583404E-04    3.0535851661E-03
   -1.8848848340E-04   -4.0722065914E-04   -1.7442481663E-04
   -7.4093369806E-04    1.0249707255E-03    1.5009383614E-03
    4.6828568982E-04   -8.0041886801E-04   -1.7888764015E-03
    2.6115978820E-04   -3.2686226246E-04    6.0302256050E-04
   -1.8914755828E-04    2.5710521750E-04   -5.7530524366E-04
    1.0273523117E-04    4.2481772258E-04    3.7440649197E-04
   -7.3530383101E-04   -5.2710858113E-04   -1.2170491515E-03
   -1.3602347618E-04   -4.2526082335E-04    8.5867544358E-05
    2.5523322056E-04    1.9685928523E-04   -3.4083223262E-04
   -8.1280688996E-04    2.4371145524E-03   -7.6193725003E-04
    2.5865829656E-04   -8.4596023541E-04   -1.7572550544E-03
   -4.6397690702E-05   -5.0927370868E-04   -2.8530263556E-04
   -2.7116992812E-04   -1.9189269661E-04    7.4354380828E-04
   -1.1566562928E-03    2.6378661494E-04    1.1359966723E-04
   -3.4283772749E-04   -2.3980772688E-04    2.9724646867E-05
   -6.3131679462E-04    1.1236329100E-04    7.4014257610E-05
   -9.9610342761E-05    1.1459918583E-04   -2.9447540682E-04
   -1.6320691413E-03    3.0469087239E-03    1.4803701677E-03
    5.1850981833E-03   -2.1580522442E-03   -7.0788812651E-04
    4.2224630097E-04   -9.5130637799E-04    4.1977805363E-05
    7.8360303852E-04   -1.7033402391E-04    1.4744148773E-04
   -1.7018465999E-03    2.0449434191E-03   -7.9891062974E-04
    1.3545208370E-03   -6.9259883440E-04    5.1117907888E-04
   -2.4102379238E-04    2.2144888426E-04    5.1492778558E-05
   -6.4832894918E-04   -4.9173121015E-04    1.0237166157E-03
   -4.6873445964E-05   -2.2898023549E-04   -7.2272537909E-05
    1.1422514399E-03   -3.2894125755E-04   -2.4573137367E-04
    1.0262074696E-03   -1.3451968658E-03    2.1418383378E-04
    3.8742423600E-04    3.1235340507E-04    3.7868166791E-04
    7.5123015952E-04   -2.1350133003E-03   -1.3487881085E-03
   -6.3325909223E-04   -1.1153131691E-03   -2.9173050731E-04
   -8.6907599356E-05   -2.0531289293E-04    5.8033825835E-04
   -2.4223792266E-04   -1.8842650529E-04    2.1407509623E-03
   -7.4018703734E-04   -2.0440467023E-03   -3.3443862372E-03
    9.2134324190E-04   -1.1262473223E-03    8.1748556426E-04
    7.6067240677E-04   -2.0746658466E-04    1.6067472034E-04
    2.8851736567E-04   -3.3181275536E-04    3.6317261435E-04
    2.6615320639E-04    7.2004902362E-04    7.3612957896E-04
    1.0476778002E-03   -4.8110075875E-04   -7.9851580725E-04
    2.1917283556E-04   -4.8214452574E-04   -6.1973852774E-04
   -2.2420531724E-04   -1.3170919028E-04    2.8688864297E-05
    4.8176391707E-03    4.5866648285E-03   -4.5262383062E-03
   -7.4557194977E-04   -1.0861396788E-03    7.1603190434E-04
   -1.0050812989E-03   -1.4378092138E-03    6.2772760743E-05
    2.9254878632E-04    1.3775192424E-04    1.1056449118E-03
   -1.6526598763E-04    6.6115008306E-04   -2.9488249170E-04
    7.8056818135E-04   -2.5241274962E-04   -6.2846612170E-04
    1.3846717450E-04   -4.0932422780E-04    5.7345539473E-04
   -1.0163171406E-04   -9.4767508280E-04    7.2438937436E-04
   -8.1900846414E-05    6.5125169576E-04   -3.4368439449E-03
    7.4068629311E-04    2.0152855385E-04   -1.4350623979E-04
   -2.8229143012E-03   -1.0567619880E-03    4.9869683343E-04
    3.6081383464E-03   -2.3492957855E-03   -3.2961385177E-03
   -1.5966462196E-03   -5.1650123600E-04   -7.0798390526E-04
    7.3598521868E-04    2.2095275278E-03    8.5732909997E-05
   -1.0117271488E-04    1.6853725362E-03    4.8864682460E-04
    8.0981405751E-04    1.4069614346E-03    2.6336736762E-04
    2.8793022123E-04    2.2404043578E-03    5.0515526961E-04
    1.3924079539E-03    1.8642658614E-03    2.0233552685E-04
    7.4941345664E-04    1.5597143986E-03    3.0155572464E-04
    4.5491959236E-04    5.2721940278E-04    1.6349038266E-04
    8.4414153442E-04    2.3230177068E-03    1.8728427804E-04
   -4.8874430614E-04    5.8512000700E-03   -1.0489654436E-03
    2.6851801233E-05    4.6287356495E-03    1.9000213363E-03
    1.3237364038E-05   -1.8861825737E-02   -7.5618783464E-03
    1.4253674201E-05    3.2257696719E-03   -1.0089917095E-04
    1.5742801511E-03    4.1423021091E-04   -4.3171231326E-03
    9.8357481344E-04    1.8041985814E-03    3.9368374186E-04
    3.4183080460E-04    2.6445661742E-03    6.1449764056E-04
    7.3824526304E-04    2.2729570069E-03    8.3511778594E-05
    1.7780236922E-05    4.1413294818E-03    6.8397395307E-04
   -2.2712696668E-03    6.7264436234E-03    6.6520965238E-03
    1.3647573124E-03    7.9399926217E-03    4.0640226761E-03
 
 stress matrix after NEB project (eV)
    -56.70059    -24.99776      0.81109
    -24.99776    -73.02418     -1.02685
      0.81109     -1.02685     -9.19963
  FORCES: max atom, RMS     0.043455    0.011800
  FORCE total and by dimension    0.152494    0.039377
  Stress total and by dimension   99.424957   73.024184
 OPT: skip step - force has converged
 writing wavefunctions
     LOOP+:  cpu time  574.2999: real time  647.5718
    4ORBIT:  cpu time    0.0001: real time    0.0000

 total amount of memory used by VASP MPI-rank0    92411. kBytes
=======================================================================

   base      :      30000. kBytes
   nonlr-proj:       9148. kBytes
   fftplans  :       4220. kBytes
   grid      :      12288. kBytes
   one-center:        342. kBytes
   wavefun   :      36413. kBytes
 
  
  
 General timing and accounting informations for this job:
 ========================================================
  
                  Total CPU time used (sec):      893.034
                            User time (sec):      649.449
                          System time (sec):      243.585
                         Elapsed time (sec):      973.855
  
                   Maximum memory used (kb):      918300.
                   Average memory used (kb):           0.
  
                          Minor page faults:        57873
                          Major page faults:           58
                 Voluntary context switches:        15376
