 vasp.5.4.4.18Apr17-6-g9f103f2a35 (build Oct 13 2017 11:24:24) complex          
  
 executed on             LinuxIFC date 2021.10.27  08:43:59
 running on   48 total cores
 distrk:  each k-point on   48 cores,    1 groups
 distr:  one band on NCORES_PER_BAND=   6 cores,    8 groups


--------------------------------------------------------------------------------------------------------


 INCAR:
 POTCAR:    PAW_PBE Zr_sv 04Jan2005               
 POTCAR:    PAW_PBE O 08Apr2002                   
 POTCAR:    PAW_PBE H 15Jun2001                   
 POTCAR:    PAW_PBE C 08Apr2002                   
 POTCAR:    PAW_PBE Zr_sv 04Jan2005               
   VRHFIN =Zr: 4s4p5s4d                                                         
   LEXCH  = PE                                                                  
   EATOM  =  1284.2219 eV,   94.3876 Ry                                         
                                                                                
   TITEL  = PAW_PBE Zr_sv 04Jan2005                                             
   LULTRA =        F    use ultrasoft PP ?                                      
   IUNSCR =        1    unscreen: 0-lin 1-nonlin 2-no                           
   RPACOR =    2.200    partial core radius                                     
   POMASS =   91.224; ZVAL   =   12.000    mass and valenz                      
   RCORE  =    2.500    outmost cutoff radius                                   
   RWIGS  =    3.070; RWIGS  =    1.625    wigner-seitz radius (au A)           
   ENMAX  =  229.898; ENMIN  =  172.424 eV                                      
   ICORE  =        3    local potential                                         
   LCOR   =        T    correct aug charges                                     
   LPAW   =        T    paw PP                                                  
   EAUG   =  461.257                                                            
   DEXC   =    0.000                                                            
   RMAX   =    2.561    core radius for proj-oper                               
   RAUG   =    1.300    factor for augmentation sphere                          
   RDEP   =    2.597    radius for radial grids                                 
   RDEPT  =    2.007    core radius for aug-charge                              
                                                                                
   Atomic configuration                                                         
   11 entries                                                                   
     n  l   j            E        occ.                                          
     1  0  0.50    -17820.0161   2.0000                                         
     2  0  0.50     -2467.0882   2.0000                                         
     2  1  1.50     -2199.6095   6.0000                                         
     3  0  0.50      -402.4863   2.0000                                         
     3  1  1.50      -315.3675   6.0000                                         
     3  2  2.50      -172.4472  10.0000                                         
     4  0  0.50       -52.4146   2.0000                                         
     5  0  0.50        -3.8421   1.0000                                         
     4  1  1.50       -30.5054   6.0000                                         
     4  2  2.50        -2.3341   3.0000                                         
     4  3  2.50        -1.3606   0.0000                                         
   Description                                                                  
     l       E           TYP  RCUT    TYP  RCUT                                 
     0    -52.4145962     23  2.200                                             
     0     -3.8421270     23  2.500                                             
     1    -30.5053914     23  2.200                                             
     1     20.4087390     23  2.200                                             
     2     -2.3340816     23  2.500                                             
     2     -0.6120942     23  2.500                                             
     3     -4.0817478     23  2.500                                             
  local pseudopotential read in
  partial core-charges read in
  partial kinetic energy density read in
  atomic valenz-charges read in
  non local Contribution for L=           0  read in
    real space projection operators read in
  non local Contribution for L=           0  read in
    real space projection operators read in
  non local Contribution for L=           1  read in
    real space projection operators read in
  non local Contribution for L=           1  read in
    real space projection operators read in
  non local Contribution for L=           2  read in
    real space projection operators read in
  non local Contribution for L=           2  read in
    real space projection operators read in
    PAW grid and wavefunctions read in
 
   number of l-projection  operators is LMAX  =           6
   number of lm-projection operators is LMMAX =          18
 
 POTCAR:    PAW_PBE O 08Apr2002                   
   VRHFIN =O: s2p4                                                              
   LEXCH  = PE                                                                  
   EATOM  =   432.3788 eV,   31.7789 Ry                                         
                                                                                
   TITEL  = PAW_PBE O 08Apr2002                                                 
   LULTRA =        F    use ultrasoft PP ?                                      
   IUNSCR =        1    unscreen: 0-lin 1-nonlin 2-no                           
   RPACOR =    1.200    partial core radius                                     
   POMASS =   16.000; ZVAL   =    6.000    mass and valenz                      
   RCORE  =    1.520    outmost cutoff radius                                   
   RWIGS  =    1.550; RWIGS  =    0.820    wigner-seitz radius (au A)           
   ENMAX  =  400.000; ENMIN  =  300.000 eV                                      
   ICORE  =        2    local potential                                         
   LCOR   =        T    correct aug charges                                     
   LPAW   =        T    paw PP                                                  
   EAUG   =  605.392                                                            
   DEXC   =    0.000                                                            
   RMAX   =    1.553    core radius for proj-oper                               
   RAUG   =    1.300    factor for augmentation sphere                          
   RDEP   =    1.550    radius for radial grids                                 
   RDEPT  =    1.329    core radius for aug-charge                              
                                                                                
   Atomic configuration                                                         
    4 entries                                                                   
     n  l   j            E        occ.                                          
     1  0  0.50      -514.6923   2.0000                                         
     2  0  0.50       -23.9615   2.0000                                         
     2  1  0.50        -9.0305   4.0000                                         
     3  2  1.50        -9.5241   0.0000                                         
   Description                                                                  
     l       E           TYP  RCUT    TYP  RCUT                                 
     0    -23.9615318     23  1.200                                             
     0     -9.5240782     23  1.200                                             
     1     -9.0304911     23  1.520                                             
     1      8.1634956     23  1.520                                             
     2     -9.5240782      7  1.500                                             
  local pseudopotential read in
  partial core-charges read in
  partial kinetic energy density read in
  kinetic energy density of atom read in
  atomic valenz-charges read in
  non local Contribution for L=           0  read in
    real space projection operators read in
  non local Contribution for L=           0  read in
    real space projection operators read in
  non local Contribution for L=           1  read in
    real space projection operators read in
  non local Contribution for L=           1  read in
    real space projection operators read in
    PAW grid and wavefunctions read in
 
   number of l-projection  operators is LMAX  =           4
   number of lm-projection operators is LMMAX =           8
 
 POTCAR:    PAW_PBE H 15Jun2001                   
   VRHFIN =H: ultrasoft test                                                    
   LEXCH  = PE                                                                  
   EATOM  =    12.4884 eV,    0.9179 Ry                                         
                                                                                
   TITEL  = PAW_PBE H 15Jun2001                                                 
   LULTRA =        F    use ultrasoft PP ?                                      
   IUNSCR =        0    unscreen: 0-lin 1-nonlin 2-no                           
   RPACOR =    0.000    partial core radius                                     
   POMASS =    1.000; ZVAL   =    1.000    mass and valenz                      
   RCORE  =    1.100    outmost cutoff radius                                   
   RWIGS  =    0.700; RWIGS  =    0.370    wigner-seitz radius (au A)           
   ENMAX  =  250.000; ENMIN  =  200.000 eV                                      
   RCLOC  =    0.701    cutoff for local pot                                    
   LCOR   =        T    correct aug charges                                     
   LPAW   =        T    paw PP                                                  
   EAUG   =  400.000                                                            
   RMAX   =    1.123    core radius for proj-oper                               
   RAUG   =    1.200    factor for augmentation sphere                          
   RDEP   =    1.112    radius for radial grids                                 
   RDEPT  =    0.926    core radius for aug-charge                              
                                                                                
   Atomic configuration                                                         
    2 entries                                                                   
     n  l   j            E        occ.                                          
     1  0  0.50        -6.4927   1.0000                                         
     2  1  0.50        -3.4015   0.0000                                         
   Description                                                                  
     l       E           TYP  RCUT    TYP  RCUT                                 
     0     -6.4927494     23  1.100                                             
     0      6.8029130     23  1.100                                             
     1     -4.0817478     23  1.100                                             
  local pseudopotential read in
  atomic valenz-charges read in
  non local Contribution for L=           0  read in
    real space projection operators read in
  non local Contribution for L=           0  read in
    real space projection operators read in
  non local Contribution for L=           1  read in
    real space projection operators read in
    PAW grid and wavefunctions read in
 
   number of l-projection  operators is LMAX  =           3
   number of lm-projection operators is LMMAX =           5
 
 POTCAR:    PAW_PBE C 08Apr2002                   
   VRHFIN =C: s2p2                                                              
   LEXCH  = PE                                                                  
   EATOM  =   147.1560 eV,   10.8157 Ry                                         
                                                                                
   TITEL  = PAW_PBE C 08Apr2002                                                 
   LULTRA =        F    use ultrasoft PP ?                                      
   IUNSCR =        1    unscreen: 0-lin 1-nonlin 2-no                           
   RPACOR =    1.200    partial core radius                                     
   POMASS =   12.011; ZVAL   =    4.000    mass and valenz                      
   RCORE  =    1.500    outmost cutoff radius                                   
   RWIGS  =    1.630; RWIGS  =    0.863    wigner-seitz radius (au A)           
   ENMAX  =  400.000; ENMIN  =  300.000 eV                                      
   ICORE  =        2    local potential                                         
   LCOR   =        T    correct aug charges                                     
   LPAW   =        T    paw PP                                                  
   EAUG   =  644.873                                                            
   DEXC   =    0.000                                                            
   RMAX   =    1.529    core radius for proj-oper                               
   RAUG   =    1.300    factor for augmentation sphere                          
   RDEP   =    1.501    radius for radial grids                                 
   RDEPT  =    1.300    core radius for aug-charge                              
                                                                                
   Atomic configuration                                                         
    4 entries                                                                   
     n  l   j            E        occ.                                          
     1  0  0.50      -273.3789   2.0000                                         
     2  0  0.50       -13.7508   2.0000                                         
     2  1  0.50        -5.2854   2.0000                                         
     3  2  1.50        -5.4423   0.0000                                         
   Description                                                                  
     l       E           TYP  RCUT    TYP  RCUT                                 
     0    -13.7508458     23  1.200                                             
     0     -8.2022199     23  1.200                                             
     1     -5.2854383     23  1.500                                             
     1     34.0145650     23  1.500                                             
     2     -5.4423304      7  1.500                                             
  local pseudopotential read in
  partial core-charges read in
  partial kinetic energy density read in
  atomic valenz-charges read in
  non local Contribution for L=           0  read in
    real space projection operators read in
  non local Contribution for L=           0  read in
    real space projection operators read in
  non local Contribution for L=           1  read in
    real space projection operators read in
  non local Contribution for L=           1  read in
    real space projection operators read in
    PAW grid and wavefunctions read in
 
   number of l-projection  operators is LMAX  =           4
   number of lm-projection operators is LMMAX =           8
 
 Optimization of the real space projectors (new method)

 maximal supplied QI-value         = 15.12
 optimisation between [QCUT,QGAM] = [ 11.34, 22.83] = [ 36.00,145.93] Ry 
 Optimized for a Real-space Cutoff    1.47 Angstroem

   l    n(q)    QCUT    max X(q) W(low)/X(q) W(high)/X(q)  e(spline) 
   0     10    11.338    12.107    0.38E-04    0.13E-04    0.27E-07
   0     10    11.338     9.948    0.69E-04    0.30E-04    0.38E-07
   1     10    11.338     3.563    0.26E-04    0.18E-04    0.40E-07
   1     10    11.338     4.524    0.25E-03    0.39E-04    0.44E-06
   2      9    11.338    87.261    0.26E-03    0.91E-05    0.26E-06
   2      9    11.338    70.950    0.25E-03    0.91E-05    0.25E-06
 Optimization of the real space projectors (new method)

 maximal supplied QI-value         = 24.76
 optimisation between [QCUT,QGAM] = [ 11.39, 22.77] = [ 36.31,145.25] Ry 
 Optimized for a Real-space Cutoff    1.00 Angstroem

   l    n(q)    QCUT    max X(q) W(low)/X(q) W(high)/X(q)  e(spline) 
   0      7    11.387    20.381    0.39E-03    0.13E-02    0.15E-06
   0      7    11.387    15.268    0.42E-03    0.14E-02    0.17E-06
   1      6    11.387     5.964    0.41E-03    0.11E-02    0.17E-06
   1      6    11.387     5.382    0.39E-03    0.87E-03    0.15E-06
 Optimization of the real space projectors (new method)

 maximal supplied QI-value         = 34.20
 optimisation between [QCUT,QGAM] = [ 11.29, 22.57] = [ 35.68,142.71] Ry 
 Optimized for a Real-space Cutoff    1.16 Angstroem

   l    n(q)    QCUT    max X(q) W(low)/X(q) W(high)/X(q)  e(spline) 
   0      8    11.287    19.460    0.40E-03    0.73E-03    0.16E-06
   0      8    11.287    12.209    0.38E-03    0.70E-03    0.15E-06
   1      7    11.287     4.655    0.22E-03    0.25E-04    0.22E-06
 Optimization of the real space projectors (new method)

 maximal supplied QI-value         = 25.13
 optimisation between [QCUT,QGAM] = [ 11.31, 22.87] = [ 35.82,146.48] Ry 
 Optimized for a Real-space Cutoff    1.00 Angstroem

   l    n(q)    QCUT    max X(q) W(low)/X(q) W(high)/X(q)  e(spline) 
   0      7    11.310   115.676    0.43E-03    0.13E-02    0.19E-06
   0      7    11.310    87.132    0.43E-03    0.13E-02    0.18E-06
   1      6    11.310     4.429    0.42E-03    0.74E-03    0.11E-06
   1      6    11.310     2.733    0.34E-03    0.55E-03    0.92E-07
  PAW_PBE Zr_sv 04Jan2005               :
 energy of atom  1       EATOM=-1284.2219
 kinetic energy error for atom=    0.0049 (will be added to EATOM!!)
  PAW_PBE O 08Apr2002                   :
 energy of atom  2       EATOM= -432.3788
 kinetic energy error for atom=    0.0224 (will be added to EATOM!!)
  PAW_PBE H 15Jun2001                   :
 energy of atom  3       EATOM=  -12.4884
 kinetic energy error for atom=    0.0020 (will be added to EATOM!!)
  PAW_PBE C 08Apr2002                   :
 energy of atom  4       EATOM= -147.1560
 kinetic energy error for atom=    0.0076 (will be added to EATOM!!)
 
 
 POSCAR: CONTCAR1-CC                             
  positions in direct lattice
  velocities in cartesian coordinates
  No initial velocities read in
 exchange correlation table for  LEXCH =        8
   RHO(1)=    0.500       N(1)  =     2000
   RHO(2)=  100.500       N(2)  =     4000
 


--------------------------------------------------------------------------------------------------------


 ion  position               nearest neighbor table
   1  0.088  0.321  0.038-  78 2.10  62 2.10  50 2.18  74 2.19  61 2.26  54 2.30  16 3.37   6 3.50
                            12 3.52  13 3.65
   2  0.338  0.821  0.038-  79 2.10  63 2.10  51 2.18  75 2.19  58 2.26  55 2.30  13 3.37   7 3.50
                             9 3.52  14 3.65
   3  0.588  0.321  0.038-  80 2.10  64 2.10  52 2.18  76 2.19  59 2.26  56 2.30  14 3.37   8 3.50
                            10 3.52  15 3.65
   4  0.838  0.821  0.038-  81 2.10  65 2.10  53 2.18  77 2.19  60 2.26  57 2.30  15 3.37   5 3.50
                            11 3.52  16 3.65
   5  0.070  0.834  0.049-  82 2.07  66 2.10  65 2.18  58 2.19  57 2.22  70 2.30  12 3.37  17 3.47
                             4 3.50  16 3.52   9 3.65
   6  0.320  0.334  0.049-  83 2.06  67 2.10  62 2.18  59 2.19  54 2.22  71 2.30   9 3.37  18 3.48
                             1 3.50  13 3.52  10 3.65
   7  0.570  0.834  0.049-  84 2.06  68 2.10  63 2.18  60 2.19  55 2.22  72 2.30  10 3.37  19 3.49
                             2 3.50  14 3.52  11 3.65
   8  0.820  0.334  0.049-  85 2.08  69 2.10  64 2.18  61 2.19  56 2.22  73 2.30  11 3.37   3 3.50
                            20 3.51  15 3.52  12 3.65
   9  0.238  0.068  0.057-  62 2.10  86 2.16  67 2.18  70 2.19  75 2.22  58 2.30   6 3.37  17 3.48
                            14 3.50  22 3.52   2 3.52   5 3.65
  10  0.488  0.568  0.057-  63 2.10  87 2.18  68 2.18  71 2.19  76 2.22  59 2.30   7 3.37  18 3.48
                            15 3.50   3 3.52  23 3.52   6 3.65
  11  0.738  0.068  0.057-  64 2.10  69 2.18  88 2.18  72 2.19  77 2.22  60 2.30   8 3.37  19 3.47
                            16 3.50   4 3.52  24 3.52   7 3.65
  12  0.988  0.568  0.057-  65 2.10  66 2.18  89 2.18  73 2.19  74 2.22  61 2.30   5 3.37  13 3.50
                             1 3.52  21 3.53  20 3.53   8 3.65
  13  0.220  0.581  0.068-  51 2.10  66 2.10  79 2.18  54 2.19  71 2.26  90 2.26  74 2.30   2 3.37
                            21 3.49  26 3.49  12 3.50  18 3.50   6 3.52   1 3.65
  14  0.470  0.081  0.068-  52 2.10  67 2.10  80 2.18  55 2.19  72 2.26  91 2.27  75 2.30   3 3.37
                            27 3.48  22 3.49   9 3.50  19 3.51   7 3.52   2 3.65
  15  0.720  0.581  0.068-  53 2.10  68 2.10  81 2.18  56 2.19  73 2.26  92 2.26  76 2.30   4 3.37
                            23 3.49  28 3.50  10 3.50   8 3.52  20 3.53   3 3.65
  16  0.970  0.081  0.068-  50 2.10  69 2.10  78 2.18  57 2.19  70 2.26  93 2.26  77 2.30   1 3.37
                            24 3.50  17 3.50  11 3.50  25 3.50   5 3.52   4 3.65
  17  0.106  0.983  0.171-  94 2.09 110 2.13  82 2.16  70 2.19 106 2.19  93 2.23  86 2.30  32 3.39
                             5 3.47   9 3.48  16 3.50  22 3.52  25 3.54  29 3.66
  18  0.356  0.484  0.171-  95 2.09 111 2.14  83 2.16  71 2.19 107 2.19  90 2.23  87 2.30  29 3.37
                             6 3.48  10 3.48  13 3.50  23 3.52  26 3.54  30 3.65
  19  0.608  0.984  0.171-  96 2.09 112 2.15  84 2.18  72 2.19 108 2.20  91 2.23  88 2.28  30 3.39
                            11 3.47   7 3.49  24 3.49  14 3.51  27 3.52  31 3.70
  20  0.855  0.483  0.173-  97 2.10 113 2.11  85 2.18 109 2.20  92 2.23  73 2.24  89 2.33  31 3.31
                            28 3.51   8 3.51  21 3.53  12 3.53  15 3.53  32 3.65
  21  0.089  0.495  0.183- 114 2.09  98 2.11  97 2.17  90 2.18  74 2.24  89 2.27 102 2.29  25 3.37
                            13 3.49  32 3.51  12 3.53  20 3.53  26 3.63  33 3.64
  22  0.339  0.995  0.182- 115 2.10  99 2.11  94 2.17  91 2.19  75 2.23 103 2.26  86 2.28  26 3.38
                            14 3.49  29 3.51   9 3.52  17 3.52  34 3.61  27 3.62
  23  0.589  0.493  0.182- 100 2.08 116 2.12  95 2.17  92 2.18  76 2.23  87 2.29 104 2.31  27 3.36
                            15 3.49  35 3.51  18 3.52  10 3.52  30 3.56  28 3.69
  24  0.839  0.996  0.183- 117 2.10 101 2.11  93 2.18  96 2.18  77 2.25  88 2.26 105 2.28  28 3.37
                            19 3.49  16 3.50  11 3.52  31 3.54  36 3.62  25 3.64
  25  0.005  0.230  0.191-  78 2.10  97 2.10 121 2.17  98 2.19 105 2.21 106 2.29  93 2.30  21 3.37
                            37 3.45  16 3.50  17 3.54  29 3.55  24 3.64  36 3.65
  26  0.253  0.730  0.191-  94 2.10  79 2.10 102 2.18  99 2.20 118 2.20 107 2.29  90 2.29  22 3.38
                            38 3.46  13 3.49  18 3.54  30 3.54  21 3.63  33 3.65
  27  0.504  0.229  0.191-  80 2.09  95 2.11 119 2.18 100 2.18 103 2.19  91 2.29 108 2.29  23 3.36
                            39 3.47  14 3.48  19 3.52  31 3.59  22 3.62  34 3.66
  28  0.757  0.730  0.191-  81 2.08  96 2.11 101 2.16 120 2.22 104 2.23 109 2.24  92 2.30  24 3.37
                            15 3.50  35 3.50  32 3.50  20 3.51  40 3.53  23 3.69
  29  0.240  0.242  0.201-  98 2.10  83 2.10 122 2.19 103 2.21 111 2.21  86 2.23 106 2.28  18 3.37
                            37 3.41  42 3.50  22 3.51  25 3.55  34 3.63  17 3.66
  30  0.488  0.743  0.200-  99 2.08  84 2.09 112 2.19 123 2.20  87 2.22 104 2.25 107 2.29  19 3.39
                            38 3.44  43 3.49  35 3.50  26 3.54  23 3.56  18 3.65
  31  0.741  0.246  0.204-  85 2.11 100 2.12 113 2.12 105 2.21 124 2.24  88 2.30 108 2.31  20 3.31
                            39 3.44  24 3.54  44 3.57  27 3.59  36 3.62  19 3.70
  32  0.989  0.741  0.202- 101 2.12  82 2.12 110 2.19 102 2.21 125 2.21  89 2.22 109 2.27  17 3.39
                            41 3.47  40 3.48  28 3.50  21 3.51  33 3.64  20 3.65
  33  0.123  0.641  0.314- 142 2.02 126 2.16 138 2.17 114 2.21 125 2.25 118 2.37 102 2.42  45 3.23
                            41 3.48  38 3.54  21 3.64  32 3.64  26 3.65  46 3.71
  34  0.371  0.140  0.313- 143 2.02 127 2.14 139 2.19 115 2.20 122 2.24 119 2.35 103 2.43  46 3.23
                            42 3.49  39 3.53  22 3.61  29 3.63  27 3.66  47 3.66
  35  0.623  0.647  0.305- 140 2.14 128 2.16 116 2.19 123 2.19 104 2.20 144 2.26 120 2.26  49 3.27
                            47 3.42  43 3.43  28 3.50  30 3.50  23 3.51  40 3.57  48 3.71
  36  0.874  0.140  0.314- 145 2.03 129 2.12 141 2.13 117 2.22 124 2.29 105 2.38 121 2.43  48 3.22
                            44 3.42  37 3.54  24 3.62  31 3.62  25 3.65  45 3.74
  37  0.110  0.161  0.312- 130 2.09 121 2.14 106 2.16 122 2.16 129 2.16 134 2.17  29 3.41  25 3.45
                            41 3.45  45 3.51  36 3.54  42 3.58
  38  0.358  0.660  0.313- 131 2.10 126 2.15 107 2.16 135 2.16 118 2.16 123 2.17  30 3.44  42 3.44
                            26 3.46  46 3.53  33 3.54  43 3.58
  39  0.606  0.158  0.314- 136 2.09 132 2.11 127 2.15 108 2.15 124 2.18 119 2.21  43 3.43  31 3.44
                            47 3.46  27 3.47  34 3.53  44 3.68
  40  0.859  0.662  0.318- 133 2.12 125 2.17 120 2.20 137 2.21 146 2.22 128 2.25 109 2.26  32 3.48
                            48 3.50  44 3.53  28 3.53  35 3.57  41 3.59  49 3.66
  41  0.027  0.889  0.324- 110 2.05 138 2.15 129 2.15 137 2.18 130 2.20 125 2.30  37 3.45  32 3.47
                            33 3.48  46 3.50  40 3.59
  42  0.275  0.389  0.325- 111 2.06 139 2.13 126 2.14 131 2.24 134 2.26 122 2.29  38 3.44  34 3.49
                            47 3.50  29 3.50  37 3.58
  43  0.524  0.887  0.325- 112 2.06 127 2.14 140 2.15 132 2.18 135 2.27 123 2.29  35 3.43  39 3.43
                            30 3.49  48 3.55  38 3.58
  44  0.782  0.383  0.334- 147 2.09 141 2.11 133 2.16 113 2.24 124 2.26 128 2.28 136 2.60  49 3.26
                            36 3.42  45 3.45  40 3.53  31 3.57  39 3.68
  45  0.011  0.407  0.336- 142 2.03 114 2.07 133 2.16 141 2.23 134 2.29 121 2.30  33 3.23  44 3.45
                            37 3.51  36 3.74
  46  0.259  0.907  0.336- 143 2.02 115 2.07 130 2.15 138 2.27 118 2.30 135 2.31  34 3.23  41 3.50
                            38 3.53  33 3.71
  47  0.507  0.400  0.334- 116 2.07 136 2.13 131 2.17 144 2.21 119 2.23 139 2.24  35 3.42  39 3.46
                            42 3.50  34 3.66  49 3.89
  48  0.759  0.908  0.336- 145 2.01 117 2.05 132 2.17 137 2.25 120 2.32 140 2.36  36 3.22  40 3.50
                            43 3.55  35 3.71
  49  0.698  0.551  0.421- 147 1.93 144 2.10 146 2.16 128 2.31 166 2.32  44 3.26  35 3.27  40 3.66
                            47 3.89
  50  0.024  0.173  0.000-  16 2.10   1 2.18
  51  0.274  0.673  0.000-  13 2.10   2 2.18
  52  0.524  0.173  0.000-  14 2.10   3 2.18
  53  0.774  0.673  0.000-  15 2.10   4 2.18
  54  0.215  0.432  0.016-  13 2.19   6 2.22   1 2.30
  55  0.465  0.932  0.016-  14 2.19   7 2.22   2 2.30
  56  0.715  0.432  0.016-  15 2.19   8 2.22   3 2.30
  57  0.965  0.932  0.016-  16 2.19   5 2.22   4 2.30
  58  0.207  0.891  0.025-   5 2.19   2 2.26   9 2.30
  59  0.457  0.391  0.025-   6 2.19   3 2.26  10 2.30
  60  0.707  0.891  0.025-   7 2.19   4 2.26  11 2.30
  61  0.957  0.391  0.025-   8 2.19   1 2.26  12 2.30
  62  0.197  0.226  0.044-   9 2.10   1 2.10   6 2.18
  63  0.447  0.726  0.044-  10 2.10   2 2.10   7 2.18
  64  0.697  0.226  0.044-  11 2.10   3 2.10   8 2.18
  65  0.947  0.726  0.044-  12 2.10   4 2.10   5 2.18
  66  0.111  0.675  0.062-   5 2.10  13 2.10  12 2.18
  67  0.361  0.175  0.062-   6 2.10  14 2.10   9 2.18
  68  0.611  0.675  0.062-   7 2.10  15 2.10  10 2.18
  69  0.861  0.175  0.062-   8 2.10  16 2.10  11 2.18
  70  0.101  0.010  0.081-  17 2.19   9 2.19  16 2.26   5 2.30
  71  0.351  0.510  0.081-  18 2.19  10 2.19  13 2.26   6 2.30
  72  0.601  0.010  0.081-  19 2.19  11 2.19  14 2.26   7 2.30
  73  0.851  0.510  0.081-  12 2.19  20 2.24  15 2.26   8 2.30
  74  0.093  0.470  0.090-   1 2.19  12 2.22  21 2.24  13 2.30
  75  0.343  0.970  0.090-   2 2.19   9 2.22  22 2.23  14 2.30
  76  0.593  0.470  0.090-   3 2.19  10 2.22  23 2.23  15 2.30
  77  0.843  0.970  0.090-   4 2.19  11 2.22  24 2.25  16 2.30
  78  0.034  0.229  0.106-   1 2.10  25 2.10  16 2.18
  79  0.284  0.729  0.106-   2 2.10  26 2.10  13 2.18
  80  0.534  0.229  0.106-  27 2.09   3 2.10  14 2.18
  81  0.784  0.729  0.106-  28 2.08   4 2.10  15 2.18
  82  0.045  0.833  0.134-   5 2.07  32 2.12  17 2.16
  83  0.296  0.334  0.134-   6 2.06  29 2.10  18 2.16
  84  0.546  0.834  0.133-   7 2.06  30 2.09  19 2.18
  85  0.796  0.333  0.134-   8 2.08  31 2.11  20 2.18
  86  0.231  0.093  0.146-   9 2.16  29 2.23  22 2.28  17 2.30
  87  0.482  0.594  0.147-  10 2.18  30 2.22  23 2.29  18 2.30
  88  0.732  0.094  0.147-  11 2.18  24 2.26  19 2.28  31 2.30
  89  0.982  0.593  0.147-  12 2.18  32 2.22  21 2.27  20 2.33
  90  0.226  0.552  0.160-  21 2.18  18 2.23  13 2.26  26 2.29
  91  0.476  0.051  0.161-  22 2.19  19 2.23  14 2.27  27 2.29
  92  0.725  0.552  0.161-  23 2.18  20 2.23  15 2.26  28 2.30
  93  0.975  0.052  0.161-  24 2.18  17 2.23  16 2.26  25 2.30
  94  0.215  0.890  0.181-  17 2.09  26 2.10  22 2.17
  95  0.465  0.390  0.181-  18 2.09  27 2.11  23 2.17
  96  0.715  0.890  0.181-  19 2.09  28 2.11  24 2.18
  97  0.965  0.391  0.182-  20 2.10  25 2.10  21 2.17
  98  0.130  0.335  0.192-  29 2.10  21 2.11  25 2.19
  99  0.379  0.835  0.193-  30 2.08  22 2.11  26 2.20
 100  0.628  0.335  0.194-  23 2.08  31 2.12  27 2.18
 101  0.880  0.837  0.194-  24 2.11  32 2.12  28 2.16
 102  0.118  0.671  0.214-  26 2.18  32 2.21  21 2.29  33 2.42
 103  0.367  0.169  0.213-  27 2.19  29 2.21  22 2.26  34 2.43
 104  0.618  0.671  0.214-  35 2.20  28 2.23  30 2.25  23 2.31
 105  0.868  0.171  0.216-  25 2.21  31 2.21  24 2.28  36 2.38
 106  0.115  0.130  0.224-  37 2.16  17 2.19  29 2.28  25 2.29
 107  0.364  0.631  0.224-  38 2.16  18 2.19  26 2.29  30 2.29
 108  0.615  0.131  0.225-  39 2.15  19 2.20  27 2.29  31 2.31
 109  0.864  0.632  0.225-  20 2.20  28 2.24  40 2.26  32 2.27
 110  0.047  0.894  0.240-  41 2.05  17 2.13  32 2.19
 111  0.297  0.396  0.241-  42 2.06  18 2.14  29 2.21
 112  0.547  0.893  0.240-  43 2.06  19 2.15  30 2.19
 113  0.796  0.394  0.241-  20 2.11  31 2.12  44 2.24
 114  0.070  0.492  0.269-  45 2.07  21 2.09  33 2.21
 115  0.315  0.992  0.268-  46 2.07  22 2.10  34 2.20
 116  0.562  0.494  0.269-  47 2.07  23 2.12  35 2.19
 117  0.811  0.994  0.269-  48 2.05  24 2.10  36 2.22
 118  0.251  0.750  0.283-  38 2.16  26 2.20  46 2.30  33 2.37
 119  0.497  0.250  0.281-  27 2.18  39 2.21  47 2.23  34 2.35
 120  0.750  0.749  0.283-  40 2.20  28 2.22  35 2.26  48 2.32
 121  0.005  0.251  0.281-  37 2.14  25 2.17  45 2.30  36 2.43
 122  0.246  0.214  0.291-  37 2.16  29 2.19  34 2.24  42 2.29
 123  0.494  0.712  0.290-  38 2.17  35 2.19  30 2.20  43 2.29
 124  0.744  0.216  0.296-  39 2.18  31 2.24  44 2.26  36 2.29
 125  0.995  0.712  0.293-  40 2.17  32 2.21  33 2.25  41 2.30
 126  0.239  0.554  0.329-  42 2.14  38 2.15  33 2.16
 127  0.486  0.052  0.327-  34 2.14  43 2.14  39 2.15
 128  0.732  0.553  0.328-  35 2.16  40 2.25  44 2.28  49 2.31
 129  0.989  0.056  0.328-  36 2.12  41 2.15  37 2.16
 130  0.147  0.004  0.331-  37 2.09  46 2.15  41 2.20
 131  0.398  0.505  0.334-  38 2.10  47 2.17  42 2.24
 132  0.643  0.000  0.334-  39 2.11  48 2.17  43 2.18
 133  0.896  0.500  0.327-  40 2.12  44 2.16  45 2.16
 134  0.137  0.321  0.351-  37 2.17  42 2.26  45 2.29
 135  0.386  0.819  0.351-  38 2.16  43 2.27  46 2.31
 136  0.618  0.310  0.354-  39 2.09  47 2.13  44 2.60
 137  0.890  0.834  0.346-  41 2.18  40 2.21  48 2.25
 138  0.132  0.800  0.356-  41 2.15  33 2.17  46 2.27
 139  0.380  0.299  0.355-  42 2.13  34 2.19  47 2.24
 140  0.629  0.793  0.355-  35 2.14  43 2.15  48 2.36
 141  0.891  0.294  0.356-  44 2.11  36 2.13  45 2.23
 142  0.065  0.544  0.375-  33 2.02  45 2.03
 143  0.316  0.043  0.374-  46 2.02  34 2.02
 144  0.577  0.541  0.378-  49 2.10  47 2.21  35 2.26
 145  0.816  0.043  0.375-  48 2.01  36 2.03
 146  0.812  0.666  0.405- 148 0.97  49 2.16  40 2.22
 147  0.756  0.416  0.418-  49 1.93  44 2.09
 148  0.840  0.720  0.431- 146 0.97
 149  0.457  0.510  0.598- 164 1.10
 150  0.618  0.472  0.578- 163 1.10
 151  0.484  0.271  0.564- 162 1.10
 152  0.584  0.426  0.511- 163 1.11
 153  0.400  0.311  0.610- 162 1.10
 154  0.514  0.331  0.630- 162 1.10
 155  0.561  0.657  0.559- 165 1.11
 156  0.427  0.451  0.533- 164 1.10
 157  0.531  0.614  0.491- 165 1.11
 158  0.721  0.620  0.538- 166 1.11
 159  0.754  0.798  0.489- 167 1.10
 160  0.661  0.810  0.532- 167 1.11
 161  0.646  0.790  0.460- 167 1.10
 162  0.468  0.334  0.594- 153 1.10 151 1.10 154 1.10 164 1.53
 163  0.568  0.483  0.545- 150 1.10 152 1.11 164 1.53 165 1.53
 164  0.475  0.448  0.568- 149 1.10 156 1.10 162 1.53 163 1.53
 165  0.580  0.603  0.525- 157 1.11 155 1.11 163 1.53 166 1.54
 166  0.675  0.640  0.505- 158 1.11 167 1.54 165 1.54  49 2.32
 167  0.685  0.765  0.496- 159 1.10 161 1.10 160 1.11 166 1.54
 
  Warning from LATTYP: Monoclinic adjustement (A1->A3, A2->A1, A3->A2)!
  Warning from LATTYP: Got some problem with cell dimensions!
  Tried to take original basis but could not verify dimensions!
  LATTYP: Found a simple monoclinic cell.
 ALAT       =    18.5584556648
 B/A-ratio  =     1.2917238965
 C/A-ratio  =     1.7011970181
 COS(beta)  =    -0.9496615564
  
  Lattice vectors:
  
 A1 = ( -14.0305058395, -12.1474763861,   0.0000000000)
 A2 = (   0.0000000000,   0.0000000000, -23.9724006653)
 A3 = (  29.1411063110,  12.1474763861,   0.0000000000)


Analysis of symmetry for initial positions (statically):
=====================================================================
 Subroutine PRICEL returns:
 Original cell was already a primitive cell.
 

 Routine SETGRP: Setting up the symmetry group for a 
 simple monoclinic supercell.


 Subroutine GETGRP returns: Found  1 space group operations
 (whereof  1 operations were pure point group operations)
 out of a pool of  4 trial point group operations.


The static configuration has the point symmetry C_1 .


Analysis of symmetry for dynamics (positions and initial velocities):
=====================================================================
 Subroutine PRICEL returns:
 Original cell was already a primitive cell.
 

 Routine SETGRP: Setting up the symmetry group for a 
 simple monoclinic supercell.


 Subroutine GETGRP returns: Found  1 space group operations
 (whereof  1 operations were pure point group operations)
 out of a pool of  4 trial point group operations.


The dynamic configuration has the point symmetry C_1 .


Analysis of constrained symmetry for selective dynamics:
=====================================================================
 Subroutine PRICEL returns:
 Original cell was already a primitive cell.
 

 Routine SETGRP: Setting up the symmetry group for a 
 simple monoclinic supercell.


 Subroutine GETGRP returns: Found  1 space group operations
 (whereof  1 operations were pure point group operations)
 out of a pool of  4 trial point group operations.


The constrained configuration has the point symmetry C_1 .


Analysis of structural, dynamic, and magnetic symmetry:
=====================================================================
 Subroutine PRICEL returns:
 Original cell was already a primitive cell.
 

 Routine SETGRP: Setting up the symmetry group for a 
 simple monoclinic supercell.


 Subroutine GETGRP returns: Found  1 space group operations
 (whereof  1 operations were pure point group operations)
 out of a pool of  4 trial point group operations.


The magnetic configuration has the point symmetry C_1 .


 Subroutine INISYM returns: Found  1 space group operations
 (whereof  1 operations are pure point group operations),
 and found     1 'primitive' translations

 
 
 KPOINTS: Monkhorst Pack                          

Automatic generation of k-mesh.
Space group operators:
 irot       det(A)        alpha          n_x          n_y          n_z        tau_x        tau_y        tau_z
    1     1.000000     0.000001     1.000000     0.000000     0.000000     0.000000     0.000000     0.000000
 
 Subroutine IBZKPT returns following result:
 ===========================================
 
 Found      2 irreducible k-points:
 
 Following reciprocal coordinates:
            Coordinates               Weight
  0.250000  0.250000  0.000000      2.000000
 -0.250000  0.250000  0.000000      2.000000
 
 Following cartesian coordinates:
            Coordinates               Weight
  0.016545  0.022051  0.000000      2.000000
 -0.016545  0.019109  0.000000      2.000000
 


--------------------------------------------------------------------------------------------------------




 Dimension of arrays:
   k-points           NKPTS =      2   k-points in BZ     NKDIM =      2   number of bands    NBANDS=    640
   number of dos      NEDOS =    301   number of ions     NIONS =    167
   non local maximal  LDIM  =      6   non local SUM 2l+1 LMDIM =     18
   total plane-waves  NPLWV = 823200
   max r-space proj   IRMAX =   2561   max aug-charges    IRDMAX=   7978
   dimension x,y,z NGX =    84 NGY =   70 NGZ =  140
   dimension x,y,z NGXF=   168 NGYF=  140 NGZF=  280
   support grid    NGXF=   168 NGYF=  140 NGZF=  280
   ions per type =              49  98  14   6
   NGX,Y,Z   is equivalent  to a cutoff of   9.24,  9.54,  9.71 a.u.
   NGXF,Y,Z  is equivalent  to a cutoff of  18.48, 19.08, 19.42 a.u.

 SYSTEM =  mZrO2_n111                              
 POSCAR =  CONTCAR1-CC                             

 Startparameter for this run:
   NWRITE =      2    write-flag & timer
   PREC   = normal    normal or accurate (medium, high low for compatibility)
   ISTART =      1    job   : 0-new  1-cont  2-samecut
   ICHARG =      1    charge: 1-file 2-atom 10-const
   ISPIN  =      2    spin polarized calculation?
   LNONCOLLINEAR =      F non collinear calculations
   LSORBIT =      F    spin-orbit coupling
   INIWAV =      1    electr: 0-lowe 1-rand  2-diag
   LASPH  =      F    aspherical Exc in radial PAW
   METAGGA=      F    non-selfconsistent MetaGGA calc.

 Electronic Relaxation 1
   ENCUT  =  500.0 eV  36.75 Ry    6.06 a.u.  27.55 22.24 43.71*2*pi/ulx,y,z
   ENINI  =  500.0     initial cutoff
   ENAUG  =  644.9 eV  augmentation charge cutoff
   NELM   =    300;   NELMIN=  2; NELMDL=  0     # of ELM steps 
   EDIFF  = 0.1E-05   stopping-criterion for ELM
   LREAL  =      T    real-space projection
   NLSPLINE    = F    spline interpolate recip. space projectors
   LCOMPAT=      F    compatible to vasp.4.4
   GGA_COMPAT  = T    GGA compatible to vasp.4.4-vasp.4.6
   LMAXPAW     = -100 max onsite density
   LMAXMIX     =    2 max onsite mixed and CHGCAR
   VOSKOWN=      0    Vosko Wilk Nusair interpolation
   ROPT   =   -0.00050  -0.00050  -0.00050  -0.00050
 Ionic relaxation
   EDIFFG = -.2E-01   stopping-criterion for IOM
   NSW    =      0    number of steps for IOM
   NBLOCK =      1;   KBLOCK =      1    inner block; outer block 
   IBRION =     -1    ionic relax: 0-MD 1-quasi-New 2-CG
   NFREE  =      1    steps in history (QN), initial steepest desc. (CG)
   ISIF   =      2    stress and relaxation
   IWAVPR =     10    prediction:  0-non 1-charg 2-wave 3-comb
   ISYM   =      2    0-nonsym 1-usesym 2-fastsym
   LCORR  =      T    Harris-Foulkes like correction to forces

   POTIM  = 0.5000    time-step for ionic-motion
   TEIN   =    0.0    initial temperature
   TEBEG  =    0.0;   TEEND  =   0.0 temperature during run
   SMASS  =  -3.00    Nose mass-parameter (am)
   estimated Nose-frequenzy (Omega)   =  0.10E-29 period in steps =****** mass=  -0.522E-26a.u.
   SCALEE = 1.0000    scale energy and forces
   NPACO  =    256;   APACO  = 16.0  distance and # of slots for P.C.
   PSTRESS=    0.0 pullay stress

  Mass of Ions in am
   POMASS =  91.22 16.00  1.00 12.01
  Ionic Valenz
   ZVAL   =  12.00  6.00  1.00  4.00
  Atomic Wigner-Seitz radii
   RWIGS  =  -1.00 -1.00 -1.00 -1.00
  virtual crystal weights 
   VCA    =   1.00  1.00  1.00  1.00
   NELECT =    1214.0000    total number of electrons
   NUPDOWN=      -1.0000    fix difference up-down

 DOS related values:
   EMIN   =  10.00;   EMAX   =-10.00  energy-range for DOS
   EFERMI =   0.00
   ISMEAR =     0;   SIGMA  =   0.05  broadening in eV -4-tet -1-fermi 0-gaus

 Electronic relaxation 2 (details)
   IALGO  =     38    algorithm
   LDIAG  =      T    sub-space diagonalisation (order eigenvalues)
   LSUBROT=      F    optimize rotation matrix (better conditioning)
   TURBO    =      0    0=normal 1=particle mesh
   IRESTART =      0    0=no restart 2=restart with 2 vectors
   NREBOOT  =      0    no. of reboots
   NMIN     =      0    reboot dimension
   EREF     =   0.00    reference energy to select bands
   IMIX   =      4    mixing-type and parameters
     AMIX     =   0.40;   BMIX     =  1.00
     AMIX_MAG =   1.60;   BMIX_MAG =  1.00
     AMIN     =   0.10
     WC   =   100.;   INIMIX=   1;  MIXPRE=   1;  MAXMIX= -45

 Intra band minimization:
   WEIMIN = 0.0000     energy-eigenvalue tresh-hold
   EBREAK =  0.39E-09  absolut break condition
   DEPER  =   0.30     relativ break condition  

   TIME   =   0.40     timestep for ELM

  volume/ion in A,a.u.               =      26.35       177.81
  Fermi-wavevector in a.u.,A,eV,Ry     =   1.065748  2.013972 15.453760  1.135819
  Thomas-Fermi vector in A             =   2.201310
 
 Write flags
   LWAVE        =      F    write WAVECAR
   LDOWNSAMPLE  =      F    k-point downsampling of WAVECAR
   LCHARG       =      F    write CHGCAR
   LVTOT        =      F    write LOCPOT, total local potential
   LVHAR        =      F    write LOCPOT, Hartree potential only
   LELF         =      F    write electronic localiz. function (ELF)
   LORBIT       =      0    0 simple, 1 ext, 2 COOP (PROOUT), +10 PAW based schemes


 Dipole corrections
   LMONO  =      F    monopole corrections only (constant potential shift)
   LDIPOL =      F    correct potential (dipole corrections)
   IDIPOL =      3    1-x, 2-y, 3-z, 4-all directions 
   EPSILON=  1.0000000 bulk dielectric constant

 LDA+U is selected, type is set to LDAUTYPE =  2
   angular momentum for each species LDAUL =     2   -1   -1   -1
   U (eV)           for each species LDAUU =   4.0  0.0  0.0  0.0
   J (eV)           for each species LDAUJ =   0.0  0.0  0.0  0.0
 Exchange correlation treatment:
   GGA     =    --    GGA type
   LEXCH   =     8    internal setting for exchange type
   VOSKOWN=      0    Vosko Wilk Nusair interpolation
   LHFCALC =     F    Hartree Fock is set to
   LHFONE  =     F    Hartree Fock one center treatment
   AEXX    =    0.0000 exact exchange contribution

 Linear response parameters
   LEPSILON=     F    determine dielectric tensor
   LRPA    =     F    only Hartree local field effects (RPA)
   LNABLA  =     F    use nabla operator in PAW spheres
   LVEL    =     F    velocity operator in full k-point grid
   LINTERFAST=   F  fast interpolation
   KINTER  =     0    interpolate to denser k-point grid
   CSHIFT  =0.1000    complex shift for real part using Kramers Kronig
   OMEGAMAX=  -1.0    maximum frequency
   DEG_THRESHOLD= 0.2000000E-02 threshold for treating states as degnerate
   RTIME   =   -0.100 relaxation time in fs
  (WPLASMAI=    0.000 imaginary part of plasma frequency in eV, 0.658/RTIME)
   DFIELD  = 0.0000000 0.0000000 0.0000000 field for delta impulse in time
 
 Orbital magnetization related:
   ORBITALMAG=     F  switch on orbital magnetization
   LCHIMAG   =     F  perturbation theory with respect to B field
   DQ        =  0.001000  dq finite difference perturbation B field
   LLRAUG    =     F  two centre corrections for induced B field



--------------------------------------------------------------------------------------------------------


 Static calculation
 charge density and potential will be updated during run
 spin polarized calculation
 Variant of blocked Davidson
 Davidson routine will perform the subspace rotation
 perform sub-space diagonalisation
    after iterative eigenvector-optimisation
 modified Broyden-mixing scheme, WC =      100.0
 initial mixing is a Kerker type mixing with AMIX =  0.4000 and BMIX =      1.0000
 Hartree-type preconditioning will be used
 using additional bands           33
 real space projection scheme for non local part
 use partial core corrections
 calculate Harris-corrections to forces 
   (improved forces if not selfconsistent)
 use gradient corrections 
 use of overlap-Matrix (Vanderbilt PP)
 Gauss-broadening in eV      SIGMA  =   0.05


--------------------------------------------------------------------------------------------------------


  energy-cutoff  :      500.00
  volume of cell :     4400.27
      direct lattice vectors                 reciprocal lattice vectors
    15.110600471  0.000000000  0.000000000     0.066178707  0.005884289  0.000000000
    -1.080094632 12.147476386  0.000000000     0.000000000  0.082321625  0.000000000
     0.000000000  0.000000000 23.972400665     0.000000000  0.000000000  0.041714637

  length of vectors
    15.110600471 12.195400238 23.972400665     0.066439793  0.082321625  0.041714637


 
 old parameters found on file WAVECAR:
  energy-cutoff  :      500.00
  volume of cell :     4400.27
      direct lattice vectors                 reciprocal lattice vectors
    15.110600471  0.000000000  0.000000000     0.066178707  0.005884289  0.000000000
    -1.080094632 12.147476386  0.000000000     0.000000000  0.082321625  0.000000000
     0.000000000  0.000000000 23.972400665     0.000000000  0.000000000  0.041714637

  length of vectors

 
 k-points in units of 2pi/SCALE and weight: Monkhorst Pack                          
   0.01654468  0.02205148  0.00000000       0.500
  -0.01654468  0.01910933  0.00000000       0.500
 
 k-points in reciprocal lattice and weights: Monkhorst Pack                          
   0.25000000  0.25000000  0.00000000       0.500
  -0.25000000  0.25000000  0.00000000       0.500
 
 position of ions in fractional coordinates (direct lattice) 
   0.08848000  0.32082999  0.03824000
   0.33847998  0.82083000  0.03824000
   0.58847999  0.32082999  0.03824000
   0.83848001  0.82083000  0.03824000
   0.07020001  0.83354995  0.04873000
   0.32019998  0.33355000  0.04873000
   0.57020004  0.83354995  0.04873000
   0.82020001  0.33355000  0.04873000
   0.23783000  0.06778000  0.05703000
   0.48783004  0.56778001  0.05703000
   0.73783001  0.06778000  0.05703000
   0.98782997  0.56778001  0.05703000
   0.21954999  0.58051001  0.06752000
   0.46955000  0.08051000  0.06752000
   0.71954999  0.58051001  0.06752000
   0.96955000  0.08051000  0.06752000
   0.10598417  0.98307203  0.17092122
   0.35625016  0.48375458  0.17110199
   0.60766818  0.98445699  0.17127350
   0.85522360  0.48251998  0.17320923
   0.08923448  0.49482217  0.18252362
   0.33901632  0.99492823  0.18218832
   0.58917679  0.49265770  0.18211046
   0.83877428  0.99581759  0.18270659
   0.00452641  0.23044867  0.19139235
   0.25315102  0.72992030  0.19127221
   0.50380837  0.22891976  0.19084866
   0.75735748  0.73037517  0.19087588
   0.23952687  0.24195231  0.20071833
   0.48804251  0.74291647  0.19988866
   0.74104691  0.24556573  0.20394777
   0.98891178  0.74057176  0.20185959
   0.12284371  0.64125334  0.31411044
   0.37125694  0.13959696  0.31292411
   0.62309012  0.64715824  0.30482010
   0.87419125  0.13950602  0.31395691
   0.10951511  0.16113927  0.31239520
   0.35799528  0.65976799  0.31260943
   0.60576277  0.15791416  0.31354911
   0.85903737  0.66210191  0.31750271
   0.02666677  0.88924415  0.32425726
   0.27523339  0.38858519  0.32533015
   0.52427216  0.88689411  0.32476633
   0.78155230  0.38270573  0.33420093
   0.01081492  0.40716462  0.33568146
   0.25855827  0.90681573  0.33608112
   0.50688576  0.40010429  0.33426792
   0.75941348  0.90820328  0.33635618
   0.69824984  0.55072770  0.42137538
   0.02440000  0.17254999  0.00000000
   0.27439999  0.67255002  0.00000000
   0.52439999  0.17254999  0.00000000
   0.77439999  0.67255002  0.00000000
   0.21455000  0.43156997  0.01581000
   0.46455001  0.93156996  0.01581000
   0.71455008  0.43156997  0.01581000
   0.96455004  0.93156996  0.01581000
   0.20673000  0.89092997  0.02490000
   0.45673000  0.39092998  0.02490000
   0.70672997  0.89092997  0.02490000
   0.95673004  0.39092998  0.02490000
   0.19748000  0.22610000  0.04418000
   0.44748002  0.72610003  0.04418000
   0.69748003  0.22610000  0.04418000
   0.94747999  0.72610003  0.04418000
   0.11054000  0.67523994  0.06158000
   0.36054002  0.17523999  0.06158000
   0.61053998  0.67523994  0.06158000
   0.86053999  0.17523999  0.06158000
   0.10129000  0.01041000  0.08086000
   0.35129000  0.51041000  0.08086000
   0.60128998  0.01041000  0.08086000
   0.85128994  0.51041000  0.08086000
   0.09348000  0.46976000  0.08995000
   0.34348000  0.96975995  0.08995000
   0.59348001  0.46976000  0.08995000
   0.84347996  0.96975995  0.08995000
   0.03362000  0.22878000  0.10576000
   0.28361999  0.72877998  0.10576000
   0.53361997  0.22878000  0.10576000
   0.78362002  0.72877998  0.10576000
   0.04536464  0.83315820  0.13357759
   0.29640019  0.33385187  0.13352298
   0.54641275  0.83386607  0.13346110
   0.79587621  0.33264061  0.13407983
   0.23137325  0.09340442  0.14620833
   0.48163854  0.59352052  0.14667628
   0.73169008  0.09378698  0.14692636
   0.98163956  0.59339471  0.14689495
   0.22558123  0.55221625  0.16049983
   0.47617783  0.05100839  0.16067350
   0.72501520  0.55216388  0.16060936
   0.97513224  0.05245718  0.16078748
   0.21494264  0.89016936  0.18088026
   0.46450155  0.38970425  0.18087713
   0.71502954  0.88954312  0.18119177
   0.96509232  0.39053873  0.18203901
   0.12983072  0.33503464  0.19236696
   0.37901731  0.83502920  0.19343040
   0.62805688  0.33490576  0.19424583
   0.87975223  0.83668322  0.19378691
   0.11753027  0.67131004  0.21432796
   0.36700432  0.16943710  0.21285018
   0.61848088  0.67079189  0.21382622
   0.86790313  0.17069572  0.21605056
   0.11544705  0.13048125  0.22385089
   0.36399014  0.63102775  0.22397402
   0.61489033  0.13137619  0.22498585
   0.86411904  0.63216078  0.22464962
   0.04728857  0.89351535  0.23975325
   0.29691050  0.39571000  0.24059187
   0.54732950  0.89339303  0.24009466
   0.79561168  0.39412821  0.24124479
   0.06969281  0.49230681  0.26876827
   0.31479112  0.99223830  0.26829789
   0.56210362  0.49368520  0.26884314
   0.81118345  0.99413885  0.26852825
   0.25076263  0.75017529  0.28257740
   0.49702855  0.24950934  0.28109827
   0.75023796  0.74927072  0.28279700
   0.00488532  0.25115703  0.28144501
   0.24559470  0.21401492  0.29101600
   0.49417549  0.71217132  0.29038346
   0.74384216  0.21553796  0.29627513
   0.99477862  0.71176216  0.29272417
   0.23894219  0.55441741  0.32923857
   0.48586947  0.05189220  0.32672745
   0.73210204  0.55309840  0.32751671
   0.98936355  0.05555805  0.32831684
   0.14694010  0.00379750  0.33057817
   0.39815143  0.50477656  0.33401953
   0.64317992  0.00004205  0.33379364
   0.89637474  0.50006323  0.32737422
   0.13743631  0.32129081  0.35136384
   0.38568660  0.81938541  0.35098777
   0.61753808  0.31025803  0.35425593
   0.88980239  0.83404038  0.34558854
   0.13164559  0.79973000  0.35629245
   0.38048603  0.29895867  0.35525807
   0.62876094  0.79336330  0.35450864
   0.89056419  0.29426457  0.35579166
   0.06537849  0.54420879  0.37471551
   0.31561025  0.04289479  0.37447472
   0.57687682  0.54120584  0.37825967
   0.81556410  0.04284011  0.37492510
   0.81219310  0.66616530  0.40529808
   0.75596655  0.41558244  0.41780445
   0.84013839  0.72029817  0.43093511
   0.45730165  0.50970283  0.59835736
   0.61788164  0.47233052  0.57816388
   0.48436230  0.27069510  0.56426761
   0.58414720  0.42592642  0.51142998
   0.40029038  0.31072206  0.60982874
   0.51380611  0.33130653  0.62968995
   0.56076680  0.65650207  0.55948950
   0.42666362  0.45101831  0.53330093
   0.53131060  0.61430629  0.49138681
   0.72149123  0.61961218  0.53840987
   0.75420296  0.79798648  0.48905488
   0.66095869  0.81024364  0.53221311
   0.64609084  0.78975393  0.45963712
   0.46774163  0.33405095  0.59424504
   0.56833842  0.48333850  0.54523643
   0.47527603  0.44829389  0.56751839
   0.57997978  0.60276330  0.52496661
   0.67487641  0.63965292  0.50507958
   0.68471792  0.76503447  0.49592690
 
 position of ions in cartesian coordinates  (Angst):
   0.99045921  3.89727473  0.91670460
   4.22806168  9.97101307  0.91670460
   8.54575920  3.89727473  0.91670460
  11.78336239  9.97101307  0.91670460
   0.16045142 10.12552833  1.16817511
   4.47814847  4.05179071  1.16817511
   7.71575212 10.12552833  1.16817511
  12.03344917  4.05179071  1.16817511
   3.52054525  0.82335597  1.36714601
   6.75814868  6.89709425  1.36714601
  11.07584571  0.82335597  1.36714601
  14.31344795  6.89709425  1.36714601
   2.69052649  7.05173159  1.61861647
   7.00822400  0.97799331  1.61861647
  10.24582672  7.05173159  1.61861647
  14.56352424  0.97799331  1.61861647
   0.53967362 11.94184428  4.09739209
   4.86065317  5.87639734  4.10172545
   8.11892433 11.95866799  4.10583687
  12.40177488  5.86140010  4.15224102
   0.81393182  6.01084065  4.37552936
   4.04812349 12.08586721  4.36749141
   8.37069815  5.98454775  4.36562491
  11.59880580 12.09667072  4.37991560
  -0.18050963  2.79936983  4.58813404
   3.03688090  8.86668959  4.58525403
   7.36559196  2.78079740  4.57510045
  10.65525203  8.87221511  4.57575297
   3.35806344  2.93911001  4.81170016
   6.57219526  9.02456022  4.79181106
  10.93242950  2.98300385  4.88911760
  14.14316323  8.99607791  4.83905890
   1.16362796  7.78960986  7.52998130
   5.45913732  1.69575079  7.50154221
   8.71627367  7.86133943  7.30726952
  13.05887497  1.69464606  7.52630079
   1.48079346  1.95743551  7.48886286
   4.69691174  8.01451609  7.49399861
   8.98287689  1.91825856  7.51652500
  12.26543773  8.04286730  7.61130218
  -0.55751686 10.80207227  7.77322488
   3.73923306  4.72032945  7.79894461
   6.96413757 10.77352524  7.78542862
  11.39636616  4.64890879  8.01159860
  -0.27635635  4.94602256  8.04709056
   2.92752388 11.01552267  8.05667122
   7.22719771  4.86025747  8.01320443
  10.49424824 11.03237785  8.06326516
   9.95613631  6.68995171 10.10137944
   0.18232835  2.09604693  0.00000000
   3.41993094  8.16978550  0.00000000
   7.73762846  2.09604693  0.00000000
  10.97523117  8.16978550  0.00000000
   2.77584291  5.24248600  0.37900365
   6.01344586 11.31622410  0.37900365
  10.33114434  5.24248600  0.37900365
  13.56874656 11.31622410  0.37900365
   2.16152573 10.82255077  0.59691280
   6.47922326  4.74881268  0.59691280
   9.71682548 10.82255077  0.59691280
  14.03452396  4.74881268  0.59691280
   2.73983193  2.74654436  1.05910064
   5.97743511  8.82028293  1.05910064
  10.29513263  2.74654436  1.05910064
  13.53273487  8.82028293  1.05910064
   0.94100273  8.20246124  1.47622036
   5.25870037  2.12872362  1.47622036
   8.49630260  8.20246124  1.47622036
  12.81400013  2.12872362  1.47622036
   1.51930892  0.12645522  1.93840825
   4.75691175  6.20019341  1.93840825
   9.07460880  0.12645522  1.93840825
  12.31221104  6.20019341  1.93840825
   0.90515363  5.70639848  2.15631746
   4.14275646 11.78013610  2.15631746
   8.46045399  5.70639848  2.15631746
  11.69805622 11.78013610  2.15631746
   0.26091433  2.77909971  2.53532100
   3.49851704  8.85283756  2.53532100
   7.81621408  2.77909971  2.53532100
  11.05381775  8.85283756  2.53532100
  -0.21440281 10.12076952  3.20217552
   4.11819326  4.05545775  3.20086628
   7.35597049 10.12936835  3.19938296
  11.66688402  4.04074399  3.21421552
   3.39530316  1.13462799  3.50496457
   6.63678919  7.20977656  3.51618265
  10.95497773  1.13927512  3.52217765
  14.19224082  7.20824818  3.52142456
   2.81222201  6.70803386  3.84756632
   7.14023903  0.61962323  3.85172959
  10.35902584  6.70739769  3.85019191
  14.67817489  0.63722236  3.85446190
   2.28644516 10.81331133  4.33613407
   6.59797986  4.73392315  4.33605896
   9.84373494 10.80570403  4.34360176
  14.16130565  4.74406000  4.36391213
   1.59995104  4.06982535  4.61149778
   4.82526862 10.14349749  4.63699111
   9.12858666  4.06825978  4.65653878
  12.38988745 10.16358966  4.64553742
   1.05087461  8.15472283  5.13795572
   5.36264749  2.05823318  5.10252984
   8.62109883  8.14842863  5.12592779
  12.93016985  2.07352220  5.17925059
   1.60354212  1.58501790  5.36624318
   4.81853996  7.66539464  5.36919485
   9.14946338  1.59588918  5.39345090
  12.37456417  7.67915819  5.38539065
  -0.25052247 10.85395664  5.74746100
   4.05909168  4.80687787  5.76756472
   7.30552834 10.85247071  5.75564527
  11.59647451  4.78766317  5.78321668
   0.52136227  5.98028541  6.44302063
   3.68497160 12.05319135  6.43174460
   7.96049649  5.99702931  6.44481557
  11.18370499 12.07627825  6.43726669
   2.97891365  9.11273657  6.77405856
   7.24090618  3.03090881  6.73860044
  10.52726282  9.10174840  6.77932295
  -0.19745329  3.05092412  6.74691252
   3.47992704  2.59974121  6.97635225
   6.69807597  8.65108431  6.96118864
  11.00710032  2.61824223  7.10242624
  14.26293173  8.64611407  7.01730115
   3.01173667  6.73477239  7.89263903
   7.28573090  0.63035924  7.83244141
  10.46510289  6.71874975  7.85136182
  14.88986933  0.67489016  7.87054285
   2.21625149  0.04613002  7.92475227
   5.47110079  6.13176129  8.00725006
   9.71878943  0.00051075  8.00183488
  13.00464497  6.07450630  7.84794591
   1.72972073  3.90287250  8.42303468
   4.94294236  9.95346489  8.41401952
   8.99626319  3.76885206  8.49236509
  12.54460588 10.13148583  8.28458696
   1.12545987  9.71470124  8.54118538
   5.42646868  3.63159339  8.51638890
   8.64404788  9.63736198  8.49842327
  13.13912611  3.57457188  8.52918018
   0.40011121  6.61076343  8.98283040
   4.72272997  0.52106340  8.97705810
   8.13240156  6.57428522  9.06779226
  12.27739196  0.52039926  8.98785479
  11.55320384  8.09222730  9.71596796
  10.97424020  5.04827792 10.01577577
  11.91700541  8.74980501 10.33054915
   6.35957530  6.19160306 14.34406246
   8.82640098  5.73762385 13.85997609
   7.02662882  3.28826237 13.52684919
   8.36677418  5.17393114 12.26020443
   5.71301879  3.77448890 14.61905886
   7.40607649  4.02453828 15.09517989
   7.76443869  7.97484344 13.41230638
   5.96000111  5.47873423 12.78450364
   7.36491332  7.46227111 11.77972140
  10.23292590  7.52672429 12.90697713
  10.53455863  9.69352192 11.72381962
   9.11234284  9.84241543 12.75842582
   8.90981153  9.59351717 11.01860516
   6.70705022  4.05787598 14.24548020
   8.06588352  5.87134299 13.07062611
   6.69750642  5.44563948 13.60477831
   8.11280139  7.32205299 12.58470984
   9.50690214  7.77016880 12.10797003
   9.52018925  9.29323811 11.88855832
 


--------------------------------------------------------------------------------------------------------


 k-point  1 :   0.2500 0.2500 0.0000  plane waves:  111683
 k-point  2 :  -0.2500 0.2500 0.0000  plane waves:  111725

 maximum and minimum number of plane-waves per node :     18644    18587

 maximum number of plane-waves:    111725
 maximum index in each direction: 
   IXMAX=   27   IYMAX=   21   IZMAX=   43
   IXMIN=  -27   IYMIN=  -22   IZMIN=  -43


 real space projection operators:
  total allocation   :      22446.14 KBytes
  max/ min on nodes  :       3752.34       3734.81


 parallel 3D FFT for wavefunctions:
    minimum data exchange during FFTs selected (reduces bandwidth)
 parallel 3D FFT for charge:
    minimum data exchange during FFTs selected (reduces bandwidth)


 total amount of memory used by VASP MPI-rank0   175098. kBytes
=======================================================================

   base      :      30000. kBytes
   nonlr-proj:      11810. kBytes
   fftplans  :       9317. kBytes
   grid      :      26149. kBytes
   one-center:        870. kBytes
   wavefun   :      96952. kBytes
 
     INWAV:  cpu time    8.2319: real time    8.3708
 Broyden mixing: mesh for mixing (old mesh)
   NGX = 55   NGY = 45   NGZ = 87
  (NGX  =168   NGY  =140   NGZ  =280)
  gives a total of 215325 points

 initial charge density was supplied:
 number of electron    1214.0000059 magnetization      -0.0000000
 keeping initial charge density in first step


--------------------------------------------------------------------------------------------------------


 Maximum index for non-local projection operator          432
 Maximum index for augmentation-charges          476 (set IRDMAX)


--------------------------------------------------------------------------------------------------------


 First call to EWALD:  gamma=   0.108
 Maximum number of real-space cells 3x 4x 2
 Maximum number of reciprocal cells 3x 2x 4

    FEWALD:  cpu time    0.0053: real time    0.0053


--------------------------------------- Iteration      1(   1)  ---------------------------------------


    POTLOK:  cpu time    0.2230: real time    0.2246
    SETDIJ:  cpu time    0.0221: real time    0.0222
     EDDAV:  cpu time   28.0561: real time   28.1340
       DOS:  cpu time    0.0007: real time    0.0007
    CHARGE:  cpu time    1.2169: real time    1.2202
    MIXING:  cpu time    0.0066: real time    0.0066
    --------------------------------------------
      LOOP:  cpu time   29.5255: real time   29.6083

 eigenvalue-minimisations  :  6336
 total energy-change (2. order) :-0.1378588E+04  (-0.1347131E+00)
 number of electron    1214.0000059 magnetization      -0.0000000
 augmentation part       74.0291765 magnetization      -0.0000000

 Broyden mixing:
  rms(total) = 0.94986E-01    rms(broyden)= 0.94906E-01
  rms(prec ) = 0.96230E-01
  weight for this iteration     100.00

 Free energy of the ion-electron system (eV)
  ---------------------------------------------------
  alpha Z        PSCENC =      2166.38705829
  Ewald energy   TEWEN  =    380623.26921520
  -Hartree energ DENC   =   -477704.55897126
  -exchange      EXHF   =         0.00000000
  -V(xc)+E(xc)   XCENC  =      5337.57774392
  PAW double counting   =    130202.73831690  -129524.92893132
  entropy T*S    EENTRO =        -0.00000000
  eigenvalues    EBANDS =    -18834.33833351
  atomic energy  EATOM  =    106355.26625530
  Solvation  Ediel_sol  =         0.00000000
  ---------------------------------------------------
  free energy    TOTEN  =     -1378.58764648 eV

  energy without entropy =    -1378.58764648  energy(sigma->0) =    -1378.58764648


--------------------------------------------------------------------------------------------------------




--------------------------------------- Iteration      1(   2)  ---------------------------------------


    POTLOK:  cpu time    0.2154: real time    0.2169
    SETDIJ:  cpu time    0.0219: real time    0.0219
     EDDAV:  cpu time   27.4707: real time   27.5461
       DOS:  cpu time    0.0007: real time    0.0007
    CHARGE:  cpu time    1.2170: real time    1.2202
    MIXING:  cpu time    0.0065: real time    0.0065
    --------------------------------------------
      LOOP:  cpu time   28.9321: real time   29.0123

 eigenvalue-minimisations  :  6176
 total energy-change (2. order) :-0.1752719E+01  (-0.1200583E+00)
 number of electron    1214.0000059 magnetization       0.0000000
 augmentation part       73.9543174 magnetization      -0.0000000

 Broyden mixing:
  rms(total) = 0.41129E-01    rms(broyden)= 0.41010E-01
  rms(prec ) = 0.43272E-01
  weight for this iteration     100.00

 eigenvalues of (default mixing * dielectric matrix)
  average eigenvalue GAMMA=   0.7353
  0.7353

 Free energy of the ion-electron system (eV)
  ---------------------------------------------------
  alpha Z        PSCENC =      2166.38705829
  Ewald energy   TEWEN  =    380623.26921520
  -Hartree energ DENC   =   -477705.75488580
  -exchange      EXHF   =         0.00000000
  -V(xc)+E(xc)   XCENC  =      5337.67287466
  PAW double counting   =    130059.35542216  -129380.49904324
  entropy T*S    EENTRO =        -0.00000000
  eigenvalues    EBANDS =    -18836.03726193
  atomic energy  EATOM  =    106355.26625530
  Solvation  Ediel_sol  =         0.00000000
  ---------------------------------------------------
  free energy    TOTEN  =     -1380.34036536 eV

  energy without entropy =    -1380.34036536  energy(sigma->0) =    -1380.34036536


--------------------------------------------------------------------------------------------------------




--------------------------------------- Iteration      1(   3)  ---------------------------------------


    POTLOK:  cpu time    0.2120: real time    0.2128
    SETDIJ:  cpu time    0.0218: real time    0.0218
     EDDAV:  cpu time   29.3357: real time   29.4152
       DOS:  cpu time    0.0010: real time    0.0006
    CHARGE:  cpu time    1.2139: real time    1.2176
    MIXING:  cpu time    0.0063: real time    0.0063
    --------------------------------------------
      LOOP:  cpu time   30.7908: real time   30.8743

 eigenvalue-minimisations  :  6720
 total energy-change (2. order) :-0.9776847E-02  (-0.4281222E-02)
 number of electron    1214.0000059 magnetization      -0.0000000
 augmentation part       73.9863759 magnetization      -0.0000000

 Broyden mixing:
  rms(total) = 0.27724E-01    rms(broyden)= 0.27707E-01
  rms(prec ) = 0.28147E-01
  weight for this iteration     100.00

 eigenvalues of (default mixing * dielectric matrix)
  average eigenvalue GAMMA=   0.6921
  0.6921  0.6921

 Free energy of the ion-electron system (eV)
  ---------------------------------------------------
  alpha Z        PSCENC =      2166.38705829
  Ewald energy   TEWEN  =    380623.26921520
  -Hartree energ DENC   =   -477703.32263253
  -exchange      EXHF   =         0.00000000
  -V(xc)+E(xc)   XCENC  =      5337.47705783
  PAW double counting   =    130086.06616557  -129406.45339245
  entropy T*S    EENTRO =        -0.00000000
  eigenvalues    EBANDS =    -18839.03986942
  atomic energy  EATOM  =    106355.26625530
  Solvation  Ediel_sol  =         0.00000000
  ---------------------------------------------------
  free energy    TOTEN  =     -1380.35014221 eV

  energy without entropy =    -1380.35014221  energy(sigma->0) =    -1380.35014221


--------------------------------------------------------------------------------------------------------




--------------------------------------- Iteration      1(   4)  ---------------------------------------


    POTLOK:  cpu time    0.2125: real time    0.2154
    SETDIJ:  cpu time    0.0219: real time    0.0219
     EDDAV:  cpu time   25.4393: real time   25.5083
       DOS:  cpu time    0.0006: real time    0.0006
    CHARGE:  cpu time    1.2076: real time    1.2107
    MIXING:  cpu time    0.0066: real time    0.0066
    --------------------------------------------
      LOOP:  cpu time   26.8885: real time   26.9637

 eigenvalue-minimisations  :  5600
 total energy-change (2. order) :-0.4497281E-04  (-0.2180848E-03)
 number of electron    1214.0000059 magnetization      -0.0000000
 augmentation part       73.9823781 magnetization      -0.0000000

 Broyden mixing:
  rms(total) = 0.22359E-01    rms(broyden)= 0.22358E-01
  rms(prec ) = 0.22667E-01
  weight for this iteration     100.00

 eigenvalues of (default mixing * dielectric matrix)
  average eigenvalue GAMMA=   0.6849
  0.7713  0.7713  0.5123

 Free energy of the ion-electron system (eV)
  ---------------------------------------------------
  alpha Z        PSCENC =      2166.38705829
  Ewald energy   TEWEN  =    380623.26921520
  -Hartree energ DENC   =   -477704.08479064
  -exchange      EXHF   =         0.00000000
  -V(xc)+E(xc)   XCENC  =      5337.54575497
  PAW double counting   =    130115.46842026  -129435.80534012
  entropy T*S    EENTRO =        -0.00000000
  eigenvalues    EBANDS =    -18838.39676045
  atomic energy  EATOM  =    106355.26625530
  Solvation  Ediel_sol  =         0.00000000
  ---------------------------------------------------
  free energy    TOTEN  =     -1380.35018718 eV

  energy without entropy =    -1380.35018718  energy(sigma->0) =    -1380.35018718


--------------------------------------------------------------------------------------------------------




--------------------------------------- Iteration      1(   5)  ---------------------------------------


    POTLOK:  cpu time    0.2120: real time    0.2147
    SETDIJ:  cpu time    0.0218: real time    0.0219
     EDDAV:  cpu time   29.1462: real time   29.2252
       DOS:  cpu time    0.0006: real time    0.0006
    CHARGE:  cpu time    1.2063: real time    1.2094
    MIXING:  cpu time    0.0068: real time    0.0068
    --------------------------------------------
      LOOP:  cpu time   30.5937: real time   30.6785

 eigenvalue-minimisations  :  6656
 total energy-change (2. order) :-0.4782225E-05  (-0.1982469E-04)
 number of electron    1214.0000059 magnetization      -0.0000000
 augmentation part       73.9881430 magnetization       0.0000000

 Broyden mixing:
  rms(total) = 0.18814E-01    rms(broyden)= 0.18814E-01
  rms(prec ) = 0.19074E-01
  weight for this iteration     100.00

 eigenvalues of (default mixing * dielectric matrix)
  average eigenvalue GAMMA=   0.7338
  0.9170  0.9170  0.5506  0.5506

 Free energy of the ion-electron system (eV)
  ---------------------------------------------------
  alpha Z        PSCENC =      2166.38705829
  Ewald energy   TEWEN  =    380623.26921520
  -Hartree energ DENC   =   -477704.16899935
  -exchange      EXHF   =         0.00000000
  -V(xc)+E(xc)   XCENC  =      5337.54979670
  PAW double counting   =    130133.29252919  -129453.59224369
  entropy T*S    EENTRO =        -0.00000000
  eigenvalues    EBANDS =    -18838.35380360
  atomic energy  EATOM  =    106355.26625530
  Solvation  Ediel_sol  =         0.00000000
  ---------------------------------------------------
  free energy    TOTEN  =     -1380.35019196 eV

  energy without entropy =    -1380.35019196  energy(sigma->0) =    -1380.35019196


--------------------------------------------------------------------------------------------------------




--------------------------------------- Iteration      1(   6)  ---------------------------------------


    POTLOK:  cpu time    0.2133: real time    0.2141
    SETDIJ:  cpu time    0.0218: real time    0.0219
     EDDAV:  cpu time   29.9888: real time   30.0695
       DOS:  cpu time    0.0010: real time    0.0007
    CHARGE:  cpu time    1.2213: real time    1.2248
    MIXING:  cpu time    0.0071: real time    0.0071
    --------------------------------------------
      LOOP:  cpu time   31.4534: real time   31.5380

 eigenvalue-minimisations  :  6912
 total energy-change (2. order) :-0.1107814E-04  (-0.2417065E-05)
 number of electron    1214.0000059 magnetization      -0.0000000
 augmentation part       73.9898687 magnetization       0.0000000

 Broyden mixing:
  rms(total) = 0.16120E-01    rms(broyden)= 0.16120E-01
  rms(prec ) = 0.16354E-01
  weight for this iteration     100.00

 eigenvalues of (default mixing * dielectric matrix)
  average eigenvalue GAMMA=   0.7982
  1.1300  1.1300  0.5227  0.6042  0.6042

 Free energy of the ion-electron system (eV)
  ---------------------------------------------------
  alpha Z        PSCENC =      2166.38705829
  Ewald energy   TEWEN  =    380623.26921520
  -Hartree energ DENC   =   -477704.30344378
  -exchange      EXHF   =         0.00000000
  -V(xc)+E(xc)   XCENC  =      5337.55812893
  PAW double counting   =    130148.41770149  -129468.70454524
  entropy T*S    EENTRO =        -0.00000000
  eigenvalues    EBANDS =    -18838.24057323
  atomic energy  EATOM  =    106355.26625530
  Solvation  Ediel_sol  =         0.00000000
  ---------------------------------------------------
  free energy    TOTEN  =     -1380.35020304 eV

  energy without entropy =    -1380.35020304  energy(sigma->0) =    -1380.35020304


--------------------------------------------------------------------------------------------------------




--------------------------------------- Iteration      1(   7)  ---------------------------------------


    POTLOK:  cpu time    0.2131: real time    0.2138
    SETDIJ:  cpu time    0.0218: real time    0.0218
     EDDAV:  cpu time   28.7690: real time   28.8470
       DOS:  cpu time    0.0006: real time    0.0006
    CHARGE:  cpu time    1.2128: real time    1.2160
    MIXING:  cpu time    0.0076: real time    0.0076
    --------------------------------------------
      LOOP:  cpu time   30.2250: real time   30.3069

 eigenvalue-minimisations  :  6528
 total energy-change (2. order) :-0.4274494E-05  (-0.2329325E-05)
 number of electron    1214.0000059 magnetization      -0.0000000
 augmentation part       73.9909892 magnetization       0.0000000

 Broyden mixing:
  rms(total) = 0.12954E-01    rms(broyden)= 0.12954E-01
  rms(prec ) = 0.13140E-01
  weight for this iteration     100.00

 eigenvalues of (default mixing * dielectric matrix)
  average eigenvalue GAMMA=   0.8581
  1.3429  1.3429  0.6847  0.6847  0.5467  0.5467

 Free energy of the ion-electron system (eV)
  ---------------------------------------------------
  alpha Z        PSCENC =      2166.38705829
  Ewald energy   TEWEN  =    380623.26921520
  -Hartree energ DENC   =   -477704.35932872
  -exchange      EXHF   =         0.00000000
  -V(xc)+E(xc)   XCENC  =      5337.56323113
  PAW double counting   =    130165.21806156  -129485.49260769
  entropy T*S    EENTRO =        -0.00000000
  eigenvalues    EBANDS =    -18838.20209238
  atomic energy  EATOM  =    106355.26625530
  Solvation  Ediel_sol  =         0.00000000
  ---------------------------------------------------
  free energy    TOTEN  =     -1380.35020731 eV

  energy without entropy =    -1380.35020731  energy(sigma->0) =    -1380.35020731


--------------------------------------------------------------------------------------------------------




--------------------------------------- Iteration      1(   8)  ---------------------------------------


    POTLOK:  cpu time    0.2132: real time    0.2149
    SETDIJ:  cpu time    0.0218: real time    0.0219
     EDDAV:  cpu time   27.6579: real time   27.7325
       DOS:  cpu time    0.0006: real time    0.0006
    CHARGE:  cpu time    1.2115: real time    1.2147
    MIXING:  cpu time    0.0078: real time    0.0078
    --------------------------------------------
      LOOP:  cpu time   29.1128: real time   29.1923

 eigenvalue-minimisations  :  6208
 total energy-change (2. order) :-0.3737819E-05  (-0.1786467E-05)
 number of electron    1214.0000059 magnetization      -0.0000000
 augmentation part       73.9925225 magnetization      -0.0000000

 Broyden mixing:
  rms(total) = 0.10607E-01    rms(broyden)= 0.10607E-01
  rms(prec ) = 0.10751E-01
  weight for this iteration     100.00

 eigenvalues of (default mixing * dielectric matrix)
  average eigenvalue GAMMA=   0.9069
  1.5638  1.5638  0.7633  0.7633  0.5311  0.5817  0.5817

 Free energy of the ion-electron system (eV)
  ---------------------------------------------------
  alpha Z        PSCENC =      2166.38705829
  Ewald energy   TEWEN  =    380623.26921520
  -Hartree energ DENC   =   -477704.40611574
  -exchange      EXHF   =         0.00000000
  -V(xc)+E(xc)   XCENC  =      5337.56643980
  PAW double counting   =    130177.87231713  -129498.13708474
  entropy T*S    EENTRO =        -0.00000000
  eigenvalues    EBANDS =    -18838.16829629
  atomic energy  EATOM  =    106355.26625530
  Solvation  Ediel_sol  =         0.00000000
  ---------------------------------------------------
  free energy    TOTEN  =     -1380.35021105 eV

  energy without entropy =    -1380.35021105  energy(sigma->0) =    -1380.35021105


--------------------------------------------------------------------------------------------------------




--------------------------------------- Iteration      1(   9)  ---------------------------------------


    POTLOK:  cpu time    0.2118: real time    0.2126
    SETDIJ:  cpu time    0.0217: real time    0.0218
     EDDAV:  cpu time   20.5278: real time   20.5862
       DOS:  cpu time    0.0006: real time    0.0006
    CHARGE:  cpu time    1.2159: real time    1.2191
    MIXING:  cpu time    0.0081: real time    0.0081
    --------------------------------------------
      LOOP:  cpu time   21.9861: real time   22.0484

 eigenvalue-minimisations  :  4160
 total energy-change (2. order) :-0.3591878E-05  (-0.4629125E-06)
 number of electron    1214.0000059 magnetization      -0.0000000
 augmentation part       73.9934481 magnetization      -0.0000000

 Broyden mixing:
  rms(total) = 0.91052E-02    rms(broyden)= 0.91051E-02
  rms(prec ) = 0.92315E-02
  weight for this iteration     100.00

 eigenvalues of (default mixing * dielectric matrix)
  average eigenvalue GAMMA=   1.0441
  2.0282  2.0282  0.9105  0.9105  0.6596  0.6596  0.5780  0.5780

 Free energy of the ion-electron system (eV)
  ---------------------------------------------------
  alpha Z        PSCENC =      2166.38705829
  Ewald energy   TEWEN  =    380623.26921520
  -Hartree energ DENC   =   -477704.43303993
  -exchange      EXHF   =         0.00000000
  -V(xc)+E(xc)   XCENC  =      5337.56781509
  PAW double counting   =    130186.02164585  -129506.28433711
  entropy T*S    EENTRO =        -0.00000000
  eigenvalues    EBANDS =    -18838.14482733
  atomic energy  EATOM  =    106355.26625530
  Solvation  Ediel_sol  =         0.00000000
  ---------------------------------------------------
  free energy    TOTEN  =     -1380.35021464 eV

  energy without entropy =    -1380.35021464  energy(sigma->0) =    -1380.35021464


--------------------------------------------------------------------------------------------------------




--------------------------------------- Iteration      1(  10)  ---------------------------------------


    POTLOK:  cpu time    0.2124: real time    0.2132
    SETDIJ:  cpu time    0.0218: real time    0.0218
     EDDAV:  cpu time   27.8858: real time   27.9613
       DOS:  cpu time    0.0005: real time    0.0005
    CHARGE:  cpu time    1.2249: real time    1.2281
    MIXING:  cpu time    0.0085: real time    0.0085
    --------------------------------------------
      LOOP:  cpu time   29.3538: real time   29.4335

 eigenvalue-minimisations  :  6304
 total energy-change (2. order) :-0.3844369E-05  (-0.2148022E-05)
 number of electron    1214.0000059 magnetization      -0.0000000
 augmentation part       73.9946186 magnetization      -0.0000000

 Broyden mixing:
  rms(total) = 0.56721E-02    rms(broyden)= 0.56721E-02
  rms(prec ) = 0.57550E-02
  weight for this iteration     100.00

 eigenvalues of (default mixing * dielectric matrix)
  average eigenvalue GAMMA=   1.1220
  2.4036  2.4036  1.0566  1.0566  0.6939  0.6939  0.5832  0.6035  0.6035

 Free energy of the ion-electron system (eV)
  ---------------------------------------------------
  alpha Z        PSCENC =      2166.38705829
  Ewald energy   TEWEN  =    380623.26921520
  -Hartree energ DENC   =   -477704.49218040
  -exchange      EXHF   =         0.00000000
  -V(xc)+E(xc)   XCENC  =      5337.57126589
  PAW double counting   =    130204.17328829  -129524.42913552
  entropy T*S    EENTRO =        -0.00000000
  eigenvalues    EBANDS =    -18838.09598553
  atomic energy  EATOM  =    106355.26625530
  Solvation  Ediel_sol  =         0.00000000
[...]
   -.114E+03 0.866E+02 -.159E+04   0.117E+03 -.883E+02 0.160E+04   -.290E+01 0.175E+01 -.115E+02   -.255E-04 -.115E-03 -.760E-04
   -.617E+02 -.404E+02 -.179E+04   0.612E+02 0.442E+02 0.180E+04   0.463E+00 -.379E+01 -.184E+02   -.355E-04 -.165E-03 -.827E-03
   0.291E+02 -.372E+02 -.179E+04   -.289E+02 0.412E+02 0.181E+04   -.163E+00 -.398E+01 -.183E+02   -.209E-04 -.953E-04 -.744E-03
   0.252E+03 -.104E+02 -.152E+04   -.262E+03 0.129E+02 0.152E+04   0.986E+01 -.248E+01 -.602E+01   -.692E-03 0.124E-03 -.316E-04
   -.363E+02 -.769E+02 -.177E+04   0.363E+02 0.816E+02 0.179E+04   -.106E+00 -.465E+01 -.184E+02   0.950E-04 -.278E-03 -.559E-03
   -.216E+03 -.132E+03 -.164E+04   0.209E+03 0.115E+03 0.162E+04   0.731E+01 0.171E+02 0.156E+02   0.390E-03 0.685E-03 0.827E-03
   -.164E+03 0.277E+03 -.173E+04   0.171E+03 -.291E+03 0.174E+04   -.742E+01 0.140E+02 -.123E+02   0.103E-03 0.152E-03 0.178E-03
   -.660E+02 -.732E+02 -.322E+03   0.692E+02 0.788E+02 0.327E+03   -.317E+01 -.566E+01 -.526E+01   -.733E-04 -.398E-04 0.355E-04
   0.436E+02 -.410E+02 -.162E+03   -.453E+02 0.447E+02 0.166E+03   0.170E+01 -.369E+01 -.363E+01   0.377E-04 0.434E-04 -.919E-05
   -.498E+02 0.193E+02 -.192E+03   0.536E+02 -.200E+02 0.196E+03   -.377E+01 0.670E+00 -.387E+01   0.695E-05 0.914E-04 0.268E-05
   -.494E+01 0.640E+02 -.117E+03   0.652E+01 -.679E+02 0.114E+03   -.158E+01 0.386E+01 0.353E+01   0.692E-05 0.783E-05 0.217E-04
   -.104E+02 0.603E+02 -.168E+03   0.118E+02 -.637E+02 0.164E+03   -.140E+01 0.338E+01 0.369E+01   -.113E-04 0.667E-04 0.988E-04
   0.628E+02 0.306E+02 -.124E+03   -.677E+02 -.321E+02 0.126E+03   0.496E+01 0.145E+01 -.188E+01   0.185E-04 0.174E-04 -.208E-05
   -.286E+02 0.220E+02 -.135E+03   0.320E+02 -.222E+02 0.140E+03   -.346E+01 0.210E+00 -.423E+01   0.698E-05 0.254E-04 -.140E-04
   0.364E+02 -.521E+02 -.208E+03   -.380E+02 0.552E+02 0.212E+03   0.165E+01 -.314E+01 -.391E+01   0.858E-04 0.560E-04 -.152E-04
   0.700E+02 0.256E+01 -.136E+03   -.737E+02 -.238E+01 0.132E+03   0.365E+01 -.187E+00 0.400E+01   0.252E-04 0.412E-04 0.410E-04
   0.724E+02 -.234E+02 -.180E+03   -.760E+02 0.241E+02 0.176E+03   0.364E+01 -.723E+00 0.384E+01   0.657E-04 0.827E-04 0.960E-04
   -.605E+02 0.473E+01 -.237E+03   0.639E+02 -.592E+01 0.241E+03   -.346E+01 0.118E+01 -.375E+01   -.153E-03 0.132E-03 -.102E-03
   -.577E+02 -.524E+02 -.228E+03   0.626E+02 0.545E+02 0.227E+03   -.487E+01 -.201E+01 0.701E+00   -.484E-04 -.748E-04 0.861E-04
   0.183E+02 -.582E+02 -.230E+03   -.202E+02 0.608E+02 0.235E+03   0.196E+01 -.265E+01 -.419E+01   0.643E-05 -.897E-04 0.214E-04
   0.388E+02 -.501E+02 -.212E+03   -.418E+02 0.517E+02 0.207E+03   0.301E+01 -.151E+01 0.424E+01   0.164E-04 -.338E-04 0.168E-03
   0.562E+02 0.125E+03 -.524E+03   -.563E+02 -.125E+03 0.524E+03   0.325E-01 -.260E+00 0.933E-01   0.444E-04 0.942E-04 0.269E-04
   -.145E+02 0.721E+02 -.710E+03   0.140E+02 -.714E+02 0.711E+03   0.516E+00 -.782E+00 -.610E+00   0.118E-03 0.359E-03 0.189E-03
   0.136E+03 0.365E+01 -.604E+03   -.136E+03 -.359E+01 0.604E+03   -.182E+00 -.698E-01 -.246E-01   0.829E-04 0.206E-03 0.908E-04
   0.109E+03 -.758E+02 -.795E+03   -.108E+03 0.764E+02 0.795E+03   -.875E+00 -.578E+00 -.345E+00   0.496E-03 0.523E-03 0.149E-03
   -.669E+02 -.411E+02 -.902E+03   0.688E+02 0.373E+02 0.897E+03   -.193E+01 0.380E+01 0.540E+01   0.122E-03 0.434E-03 0.385E-03
   -.103E+02 -.182E+03 -.896E+03   0.972E+01 0.181E+03 0.897E+03   0.622E+00 0.116E+01 -.884E+00   -.254E-04 -.511E-03 0.501E-03
 -----------------------------------------------------------------------------------------------
   0.162E+02 -.143E+00 0.655E+02   0.853E-13 -.426E-12 0.418E-10   -.164E+02 -.299E-01 -.657E+02   0.207E-02 0.518E-02 0.307E-01
 
 
 POSITION                                       TOTAL-FORCE (eV/Angst)
 -----------------------------------------------------------------------------------
      0.99046      3.89727      0.91670        -1.487860     -1.861982     -0.707008
      4.22806      9.97101      0.91670        -1.487517     -1.884044     -0.767115
      8.54576      3.89727      0.91670        -1.346234     -1.927162     -0.786568
     11.78336      9.97101      0.91670        -1.353841     -1.836001     -0.776856
      0.16045     10.12553      1.16818        -0.230357      1.671828      0.313293
      4.47815      4.05179      1.16818        -0.192312      1.717715      0.197558
      7.71575     10.12553      1.16818        -0.100190      1.763854      0.163204
     12.03345      4.05179      1.16818        -0.141395      1.820276      0.507954
      3.52055      0.82336      1.36715        -0.848439     -0.876601      1.543601
      6.75815      6.89709      1.36715        -0.824322     -0.879546      1.541811
     11.07585      0.82336      1.36715        -0.765413     -0.812885      1.720356
     14.31345      6.89709      1.36715        -0.965827     -0.969617      1.766470
      2.69053      7.05173      1.61862         1.476047      0.466785     -2.502682
      7.00822      0.97799      1.61862         1.591072      0.443230     -2.508322
     10.24583      7.05173      1.61862         1.739512      0.382520     -2.463605
     14.56352      0.97799      1.61862         1.522062      0.507165     -2.469600
      0.53967     11.94184      4.09739        -0.003952     -0.000897     -0.000398
      4.86065      5.87640      4.10173        -0.003913     -0.001969      0.003499
      8.11892     11.95867      4.10584         0.001412      0.000466     -0.002365
     12.40177      5.86140      4.15224         0.001967     -0.002195     -0.003681
      0.81393      6.01084      4.37553        -0.003070      0.002773     -0.001558
      4.04812     12.08587      4.36749        -0.002619      0.002104      0.000132
      8.37070      5.98455      4.36562        -0.002899     -0.001533     -0.001889
     11.59881     12.09667      4.37992        -0.005449      0.004674     -0.009891
     -0.18051      2.79937      4.58813         0.002003      0.000018      0.001861
      3.03688      8.86669      4.58525        -0.002192     -0.003394      0.000954
      7.36559      2.78080      4.57510         0.000491     -0.002382      0.002949
     10.65525      8.87222      4.57575        -0.003741      0.005341      0.001568
      3.35806      2.93911      4.81170         0.000666      0.004930      0.004431
      6.57220      9.02456      4.79181         0.000755      0.008190     -0.001015
     10.93243      2.98300      4.88912        -0.001442      0.000648      0.001541
     14.14316      8.99608      4.83906        -0.000035      0.002429     -0.004629
      1.16363      7.78961      7.52998         0.004809      0.005302     -0.000399
      5.45914      1.69575      7.50154         0.003623     -0.001960     -0.003621
      8.71627      7.86134      7.30727         0.003928      0.005258     -0.000978
     13.05887      1.69465      7.52630        -0.006510     -0.000378     -0.002437
      1.48079      1.95744      7.48886         0.001784     -0.002456      0.002630
      4.69691      8.01452      7.49400        -0.002398     -0.005891      0.000847
      8.98288      1.91826      7.51652         0.004670     -0.007630     -0.003611
     12.26544      8.04287      7.61130         0.003704      0.006823      0.001407
     -0.55752     10.80207      7.77322         0.004816     -0.000266      0.005428
      3.73923      4.72033      7.79894        -0.001690      0.001522     -0.001614
      6.96414     10.77353      7.78543         0.005775      0.005210      0.007511
     11.39637      4.64891      8.01160        -0.000762     -0.000412     -0.003012
     -0.27636      4.94602      8.04709         0.008384      0.000981      0.001593
      2.92752     11.01552      8.05667        -0.006488     -0.001767     -0.001164
      7.22720      4.86026      8.01320        -0.001439     -0.002782     -0.001526
     10.49425     11.03238      8.06327        -0.006202     -0.009011     -0.001493
      9.95614      6.68995     10.10138        -0.004907     -0.003912     -0.007349
      0.18233      2.09605      0.00000         0.269992      0.965793      1.279351
      3.41993      8.16979      0.00000         0.286833      0.992110      1.280367
      7.73763      2.09605      0.00000         0.255558      0.974436      1.294382
     10.97523      8.16979      0.00000         0.245720      0.993478      1.295731
      2.77584      5.24249      0.37900        -0.001003     -0.929671      0.591194
      6.01345     11.31622      0.37900        -0.036397     -0.929986      0.595572
     10.33114      5.24249      0.37900        -0.105240     -0.924146      0.584128
     13.56875     11.31622      0.37900        -0.044045     -0.929267      0.578540
      2.16153     10.82255      0.59691         0.408477      1.206367     -0.182459
      6.47922      4.74881      0.59691         0.389897      1.219315     -0.181608
      9.71683     10.82255      0.59691         0.350379      1.179391     -0.184566
     14.03452      4.74881      0.59691         0.399925      1.172482     -0.210963
      2.73983      2.74654      1.05910         1.190270     -1.032803     -0.427165
      5.97744      8.82028      1.05910         1.166479     -1.052591     -0.402934
     10.29513      2.74654      1.05910         1.119147     -1.024164     -0.453967
     13.53273      8.82028      1.05910         1.136763     -1.008350     -0.449926
      0.94100      8.20246      1.47622        -1.105520     -0.297195     -0.898316
      5.25870      2.12872      1.47622        -1.123155     -0.310342     -0.888821
      8.49630      8.20246      1.47622        -1.186770     -0.315231     -0.891841
     12.81400      2.12872      1.47622        -1.140659     -0.325383     -0.907083
      1.51931      0.12646      1.93841         0.362655     -0.065999      0.216315
      4.75691      6.20019      1.93841         0.427321     -0.014781      0.232787
      9.07461      0.12646      1.93841         0.405434     -0.036901      0.256775
     12.31221      6.20019      1.93841         0.344160     -0.092744      0.362387
      0.90515      5.70640      2.15632        -0.368448      0.327936      0.121870
      4.14276     11.78014      2.15632        -0.354343      0.322763      0.153548
      8.46045      5.70640      2.15632        -0.417916      0.301955      0.202554
     11.69806     11.78014      2.15632        -0.400672      0.319774      0.181180
      0.26091      2.77910      2.53532         0.212626      0.402757      0.519944
      3.49852      8.85284      2.53532         0.236810      0.421762      0.599882
      7.81621      2.77910      2.53532         0.215293      0.400086      0.497466
     11.05382      8.85284      2.53532         0.266394      0.434841      0.488346
     -0.21440     10.12077      3.20218        -0.000280      0.001228     -0.002873
      4.11819      4.05546      3.20087         0.009321      0.000426     -0.003324
      7.35597     10.12937      3.19938         0.003526      0.000830     -0.004038
     11.66688      4.04074      3.21422         0.001199      0.002988      0.000932
      3.39530      1.13463      3.50496         0.003843      0.002626      0.000865
      6.63679      7.20978      3.51618         0.000826     -0.012839      0.003088
     10.95498      1.13928      3.52218         0.002700      0.000838     -0.001487
     14.19224      7.20825      3.52142        -0.004862     -0.003565     -0.007082
      2.81222      6.70803      3.84757         0.008597      0.006954      0.003789
      7.14024      0.61962      3.85173        -0.002713     -0.004999      0.001065
     10.35903      6.70740      3.85019         0.000514      0.001067     -0.000277
     14.67817      0.63722      3.85446         0.004117      0.002264      0.002462
      2.28645     10.81331      4.33613         0.003936      0.002635      0.003087
      6.59798      4.73392      4.33606         0.005788     -0.008933     -0.001966
      9.84373     10.80570      4.34360         0.009958     -0.003982     -0.004915
     14.16131      4.74406      4.36391         0.005024      0.002941     -0.005341
      1.59995      4.06983      4.61150         0.000733     -0.000022      0.004011
      4.82527     10.14350      4.63699        -0.005063     -0.001768     -0.013177
      9.12859      4.06826      4.65654         0.006578     -0.013793     -0.003977
     12.38989     10.16359      4.64554         0.000096     -0.006475      0.000001
      1.05087      8.15472      5.13796        -0.000952     -0.008789      0.000443
      5.36265      2.05823      5.10253         0.004134      0.006482     -0.006332
      8.62110      8.14843      5.12593        -0.003888     -0.002268      0.002887
     12.93017      2.07352      5.17925        -0.012293      0.001215      0.002970
      1.60354      1.58502      5.36624         0.001584      0.001482      0.002300
      4.81854      7.66539      5.36919        -0.004866      0.011599      0.001954
      9.14946      1.59589      5.39345        -0.002281      0.004821      0.004920
     12.37456      7.67916      5.38539        -0.002268     -0.002889      0.000693
     -0.25052     10.85396      5.74746         0.006557     -0.008397     -0.004353
      4.05909      4.80688      5.76756         0.003335      0.009272     -0.004215
      7.30553     10.85247      5.75565        -0.006991     -0.002568      0.000352
     11.59647      4.78766      5.78322         0.003636      0.000716      0.003984
      0.52136      5.98029      6.44302         0.000461     -0.005470     -0.002347
      3.68497     12.05319      6.43174        -0.003063     -0.003970     -0.002336
      7.96050      5.99703      6.44482         0.003939      0.000212      0.002014
     11.18370     12.07628      6.43727         0.000058      0.008273     -0.014686
      2.97891      9.11274      6.77406         0.002546      0.002425     -0.003234
      7.24091      3.03091      6.73860         0.004757      0.002168      0.004232
     10.52726      9.10175      6.77932        -0.002281      0.002074     -0.003302
     -0.19745      3.05092      6.74691         0.003963     -0.003972      0.001323
      3.47993      2.59974      6.97635        -0.001851     -0.000431     -0.001187
      6.69808      8.65108      6.96119        -0.015299      0.007980     -0.007944
     11.00710      2.61824      7.10243        -0.001626     -0.001396      0.003226
     14.26293      8.64611      7.01730        -0.004813      0.000918     -0.000320
      3.01174      6.73477      7.89264        -0.003119      0.001550      0.000546
      7.28573      0.63036      7.83244         0.001442     -0.004249      0.005584
     10.46510      6.71875      7.85136         0.002166      0.000309     -0.002979
     14.88987      0.67489      7.87054        -0.002592      0.003037      0.001273
      2.21625      0.04613      7.92475        -0.005800      0.006100     -0.003277
      5.47110      6.13176      8.00725         0.002631     -0.001678     -0.003412
      9.71879      0.00051      8.00183         0.005683     -0.000245      0.002491
     13.00464      6.07451      7.84795        -0.003596      0.002845      0.001869
      1.72972      3.90287      8.42303        -0.001078     -0.006716      0.001302
      4.94294      9.95346      8.41402        -0.004723      0.005665      0.006076
      8.99626      3.76885      8.49237         0.002786      0.000493      0.017028
     12.54461     10.13149      8.28459        -0.000544     -0.002641      0.003590
      1.12546      9.71470      8.54119         0.010878      0.005358     -0.000767
      5.42647      3.63159      8.51639         0.006912      0.006415      0.005092
      8.64405      9.63736      8.49842         0.004733      0.002827      0.003475
     13.13913      3.57457      8.52918        -0.005739     -0.001175      0.001284
      0.40011      6.61076      8.98283        -0.002724     -0.001735     -0.002544
      4.72273      0.52106      8.97706        -0.007471     -0.003089      0.004411
      8.13240      6.57429      9.06779         0.010462      0.005410      0.002546
     12.27739      0.52040      8.98785        -0.012854     -0.010255     -0.003457
     11.55320      8.09223      9.71597        -0.008277      0.002279      0.004486
     10.97424      5.04828     10.01578         0.005150      0.007466      0.002535
     11.91701      8.74981     10.33055        -0.009758     -0.007715      0.001785
      6.35958      6.19160     14.34406         0.006145      0.000838      0.002732
      8.82640      5.73762     13.85998        -0.001441     -0.006597     -0.002121
      7.02663      3.28826     13.52685        -0.004777     -0.009415     -0.008501
      8.36677      5.17393     12.26020         0.000168     -0.004784     -0.002333
      5.71302      3.77449     14.61906        -0.000720     -0.002294     -0.005749
      7.40608      4.02454     15.09518        -0.008017     -0.007488     -0.005211
      7.76444      7.97484     13.41231         0.005411     -0.006792      0.002795
      5.96000      5.47873     12.78450        -0.006883     -0.002209      0.002208
      7.36491      7.46227     11.77972        -0.005970      0.003139     -0.007503
     10.23293      7.52672     12.90698         0.003575     -0.012221      0.008252
     10.53456      9.69352     11.72382         0.009402      0.001298      0.006909
      9.11234      9.84242     12.75843         0.005064     -0.001572      0.006744
      8.90981      9.59352     11.01861         0.001976      0.001498      0.000717
      6.70705      4.05788     14.24548        -0.005239     -0.004315      0.000939
      8.06588      5.87134     13.07063        -0.000097     -0.008561     -0.006247
      6.69751      5.44564     13.60478        -0.009492     -0.002930      0.001797
      8.11280      7.32205     12.58471         0.008554     -0.007140      0.003741
      9.50690      7.77017     12.10797        -0.004608     -0.005120     -0.010299
      9.52019      9.29324     11.88856         0.016020     -0.002566      0.001421
 -----------------------------------------------------------------------------------
    total drift:                               -0.169555     -0.168114     -0.180104


--------------------------------------------------------------------------------------------------------



  FREE ENERGIE OF THE ION-ELECTRON SYSTEM (eV)
  ---------------------------------------------------
  free  energy   TOTEN  =     -1399.56342653 eV

  energy  without entropy=    -1399.56342653  energy(sigma->0) =    -1399.56342653
 


--------------------------------------------------------------------------------------------------------


    POTLOK:  cpu time    0.2338: real time    0.2344


--------------------------------------------------------------------------------------------------------


     LOOP+:  cpu time  382.0393: real time  383.1474
    4ORBIT:  cpu time    0.0000: real time    0.0000

 total amount of memory used by VASP MPI-rank0   175098. kBytes
=======================================================================

   base      :      30000. kBytes
   nonlr-proj:      11810. kBytes
   fftplans  :       9317. kBytes
   grid      :      26149. kBytes
   one-center:        870. kBytes
   wavefun   :      96952. kBytes
 
  
  
 General timing and accounting informations for this job:
 ========================================================
  
                  Total CPU time used (sec):      398.319
                            User time (sec):      383.375
                          System time (sec):       14.944
                         Elapsed time (sec):      399.858
  
                   Maximum memory used (kb):      438644.
                   Average memory used (kb):           0.
  
                          Minor page faults:        88411
                          Major page faults:            0
                 Voluntary context switches:          979
