       N       E                     dE             d eps       ncg     rms          rms(c)
DAV:   1    -0.132918748581E+04   -0.13292E+04   -0.13049E+00  6336   0.974E-01    0.955E-01
DAV:   2    -0.133093318334E+04   -0.17457E+01   -0.11637E+00  6176   0.943E-01    0.409E-01
DAV:   3    -0.133094298662E+04   -0.98033E-02   -0.40887E-02  6720   0.226E-01    0.278E-01
DAV:   4    -0.133094302914E+04   -0.42526E-04   -0.21258E-03  5632   0.572E-02    0.225E-01
DAV:   5    -0.133094303971E+04   -0.10565E-04   -0.20076E-04  6784   0.181E-02    0.189E-01
DAV:   6    -0.133094305315E+04   -0.13437E-04   -0.21990E-05  6992   0.702E-03    0.164E-01
DAV:   7    -0.133094306317E+04   -0.10020E-04   -0.23371E-05  6784   0.829E-03    0.130E-01
DAV:   8    -0.133094306986E+04   -0.66959E-05   -0.16757E-05  6992   0.647E-03    0.107E-01
DAV:   9    -0.133094307493E+04   -0.50694E-05   -0.45907E-06  7248   0.323E-03    0.922E-02
DAV:  10    -0.133094308176E+04   -0.68337E-05   -0.15865E-05  6752   0.694E-03    0.598E-02
DAV:  11    -0.133094308680E+04   -0.50393E-05   -0.36004E-05  6752   0.991E-03    0.189E-02
DAV:  12    -0.133094308810E+04   -0.12986E-05   -0.51872E-06  6976   0.295E-03    0.122E-02
DAV:  13    -0.133094308841E+04   -0.30492E-06   -0.85364E-07  6432   0.153E-03    0.572E-03
DAV:  14    -0.133094308844E+04   -0.29569E-07   -0.47930E-07  7392   0.957E-04    0.283E-03
DAV:  15    -0.133094308837E+04    0.65018E-07   -0.38857E-08  3968   0.343E-04    0.118E-03
DAV:  16    -0.133094308835E+04    0.22541E-07   -0.36865E-08  3776   0.285E-04    0.357E-04
DAV:  17    -0.133094308835E+04    0.25611E-08   -0.84977E-09  3136   0.131E-04
   1 F= -.13499963E+04 E0= -.13499963E+04  d E =-.135000E+04  mag=     0.0000
       N       E                     dE             d eps       ncg     rms          rms(c)
DAV:   1    -0.133094210639E+04    0.98196E-03   -0.57977E-01  5120   0.884E-01    0.128E-01
DAV:   2    -0.133094240728E+04   -0.30089E-03   -0.50014E-03  5664   0.824E-02    0.912E-02
DAV:   3    -0.133094233500E+04    0.72287E-04   -0.53049E-04  6112   0.427E-02    0.366E-02
DAV:   4    -0.133094234122E+04   -0.62270E-05   -0.11946E-04  6112   0.161E-02    0.164E-02
DAV:   5    -0.133094233774E+04    0.34856E-05   -0.37409E-05  5856   0.980E-03    0.683E-03
DAV:   6    -0.133094233723E+04    0.50249E-06   -0.45641E-06  6112   0.331E-03    0.382E-03
DAV:   7    -0.133094233730E+04   -0.68772E-07   -0.30987E-06  6240   0.252E-03    0.217E-03
DAV:   8    -0.133094233731E+04   -0.11394E-07   -0.48380E-07  5632   0.113E-03    0.121E-03
DAV:   9    -0.133094233749E+04   -0.17947E-06   -0.27669E-07  5088   0.715E-04    0.654E-04
DAV:  10    -0.133094233766E+04   -0.16601E-06   -0.70156E-08  5152   0.470E-04    0.639E-04
DAV:  11    -0.133094233785E+04   -0.18954E-06   -0.61406E-08  4960   0.403E-04    0.237E-04
DAV:  12    -0.133094233805E+04   -0.19601E-06   -0.19433E-08  3968   0.209E-04    0.159E-04
DAV:  13    -0.133094233821E+04   -0.16500E-06   -0.68758E-09  3264   0.115E-04    0.161E-04
DAV:  14    -0.133094233837E+04   -0.16428E-06   -0.91613E-09  3584   0.101E-04    0.776E-05
DAV:  15    -0.133094233849E+04   -0.11454E-06   -0.55370E-09  3200   0.726E-05    0.478E-05
DAV:  16    -0.133094233854E+04   -0.52227E-07   -0.19648E-09  3072   0.464E-05    0.371E-05
DAV:  17    -0.133094233858E+04   -0.42826E-07   -0.22462E-09  3072   0.463E-05    0.216E-05
DAV:  18    -0.133094233860E+04   -0.18248E-07   -0.10335E-09  3072   0.323E-05    0.224E-05
DAV:  19    -0.133094233862E+04   -0.13068E-07   -0.59192E-10  3072   0.240E-05    0.155E-05
DAV:  20    -0.133094233863E+04   -0.11583E-07   -0.36677E-10  3072   0.210E-05    0.691E-06
DAV:  21    -0.133094233863E+04   -0.30996E-08   -0.10617E-10  3072   0.166E-05
   2 F= -.13499956E+04 E0= -.13499956E+04  d E =0.749384E-03  mag=     0.0000
       N       E                     dE             d eps       ncg     rms          rms(c)
DAV:   1    -0.133094191081E+04    0.42782E-03   -0.11595E+00  5120   0.124E+00    0.139E-01
DAV:   2    -0.133094267907E+04   -0.76826E-03   -0.10267E-02  5664   0.110E-01    0.904E-02
DAV:   3    -0.133094257319E+04    0.10589E-03   -0.74662E-04  6304   0.396E-02    0.450E-02
DAV:   4    -0.133094256360E+04    0.95882E-05   -0.19171E-04  5664   0.210E-02    0.167E-02
DAV:   5    -0.133094256083E+04    0.27648E-05   -0.50185E-05  5504   0.108E-02    0.863E-03
DAV:   6    -0.133094256091E+04   -0.75146E-07   -0.83041E-06  5984   0.331E-03    0.495E-03
DAV:   7    -0.133094256069E+04    0.22084E-06   -0.26211E-06  6336   0.245E-03    0.266E-03
DAV:   8    -0.133094256079E+04   -0.98997E-07   -0.48745E-07  6208   0.113E-03    0.157E-03
DAV:   9    -0.133094256092E+04   -0.13808E-06   -0.23985E-07  6176   0.767E-04    0.579E-04
DAV:  10    -0.133094256115E+04   -0.22053E-06   -0.60516E-08  4928   0.382E-04    0.390E-04
DAV:  11    -0.133094256140E+04   -0.25316E-06   -0.23644E-08  3872   0.312E-04    0.252E-04
DAV:  12    -0.133094256164E+04   -0.24577E-06   -0.30556E-08  4416   0.251E-04    0.143E-04
DAV:  13    -0.133094256183E+04   -0.18811E-06   -0.87144E-09  3456   0.129E-04    0.912E-05
DAV:  14    -0.133094256198E+04   -0.15207E-06   -0.64846E-09  3328   0.859E-05    0.611E-05
DAV:  15    -0.133094256209E+04   -0.10637E-06   -0.49608E-09  3296   0.715E-05    0.391E-05
DAV:  16    -0.133094256216E+04   -0.72090E-07   -0.34592E-09  3072   0.533E-05    0.346E-05
DAV:  17    -0.133094256219E+04   -0.27881E-07   -0.14651E-09  3136   0.416E-05    0.216E-05
DAV:  18    -0.133094256223E+04   -0.37238E-07   -0.18930E-09  3072   0.438E-05    0.295E-05
DAV:  19    -0.133094256224E+04   -0.97789E-08   -0.62462E-10  3072   0.313E-05
   3 F= -.13499960E+04 E0= -.13499960E+04  d E =-.402782E-03  mag=     0.0000
       N       E                     dE             d eps       ncg     rms          rms(c)
DAV:   1    -0.133094232302E+04    0.23920E-03   -0.11513E+00  5120   0.124E+00    0.127E-01
DAV:   2    -0.133094280140E+04   -0.47837E-03   -0.89854E-03  5760   0.113E-01    0.899E-02
DAV:   3    -0.133094267368E+04    0.12771E-03   -0.89667E-04  6432   0.434E-02    0.453E-02
DAV:   4    -0.133094266341E+04    0.10269E-04   -0.17586E-04  5824   0.191E-02    0.174E-02
DAV:   5    -0.133094266139E+04    0.20281E-05   -0.41126E-05  5536   0.104E-02    0.868E-03
DAV:   6    -0.133094266140E+04   -0.10768E-07   -0.59404E-06  5568   0.333E-03    0.440E-03
DAV:   7    -0.133094266193E+04   -0.53569E-06   -0.28380E-06  6400   0.263E-03    0.248E-03
DAV:   8    -0.133094266243E+04   -0.49811E-06   -0.59164E-07  6144   0.118E-03    0.128E-03
DAV:   9    -0.133094266333E+04   -0.89515E-06   -0.22085E-07  5376   0.757E-04    0.646E-04
DAV:  10    -0.133094266424E+04   -0.91559E-06   -0.97452E-08  5344   0.551E-04    0.484E-04
DAV:  11    -0.133094266498E+04   -0.73698E-06   -0.60158E-08  5088   0.381E-04    0.236E-04
DAV:  12    -0.133094266579E+04   -0.81441E-06   -0.37632E-08  4352   0.250E-04    0.192E-04
DAV:  13    -0.133094266622E+04   -0.42343E-06   -0.18136E-08  3952   0.154E-04    0.128E-04
DAV:  14    -0.133094266660E+04   -0.37922E-06   -0.15384E-08  3840   0.112E-04    0.853E-05
DAV:  15    -0.133094266683E+04   -0.23303E-06   -0.77534E-09  3392   0.749E-05    0.614E-05
DAV:  16    -0.133094266696E+04   -0.13402E-06   -0.44687E-09  3200   0.699E-05    0.380E-05
DAV:  17    -0.133094266705E+04   -0.91080E-07   -0.42879E-09  3104   0.640E-05    0.420E-05
DAV:  18    -0.133094266708E+04   -0.28973E-07   -0.18089E-09  3136   0.509E-05    0.314E-05
DAV:  19    -0.133094266710E+04   -0.18117E-07   -0.11805E-09  3072   0.429E-05    0.213E-05
DAV:  20    -0.133094266711E+04   -0.12878E-07   -0.56532E-10  3136   0.322E-05    0.177E-05
DAV:  21    -0.133094266712E+04   -0.68831E-08   -0.16979E-10  3072   0.213E-05
   4 F= -.13499962E+04 E0= -.13499962E+04  d E =-.225165E-03  mag=    -0.0000
       N       E                     dE             d eps       ncg     rms          rms(c)
DAV:   1    -0.133094174414E+04    0.92298E-03   -0.11523E+00  5120   0.124E+00    0.187E-01
DAV:   2    -0.133094265582E+04   -0.91168E-03   -0.12428E-02  5568   0.127E-01    0.150E-01
DAV:   3    -0.133094248985E+04    0.16596E-03   -0.10954E-03  6592   0.521E-02    0.871E-02
DAV:   4    -0.133094247413E+04    0.15723E-04   -0.48466E-04  5984   0.382E-02    0.248E-02
DAV:   5    -0.133094246267E+04    0.11459E-04   -0.14099E-04  5856   0.199E-02    0.145E-02
DAV:   6    -0.133094246267E+04   -0.15716E-08   -0.43499E-05  5920   0.835E-03    0.891E-03
DAV:   7    -0.133094246170E+04    0.97424E-06   -0.87491E-06  6912   0.473E-03    0.393E-03
DAV:   8    -0.133094246200E+04   -0.29651E-06   -0.29458E-06  5728   0.289E-03    0.324E-03
DAV:   9    -0.133094246212E+04   -0.12768E-06   -0.73764E-07  6496   0.152E-03    0.148E-03
DAV:  10    -0.133094246296E+04   -0.83557E-06   -0.62971E-07  5696   0.136E-03    0.106E-03
DAV:  11    -0.133094246381E+04   -0.85168E-06   -0.19811E-07  6016   0.921E-04    0.927E-04
DAV:  12    -0.133094246460E+04   -0.78701E-06   -0.16431E-07  5024   0.612E-04    0.325E-04
DAV:  13    -0.133094246533E+04   -0.73270E-06   -0.36752E-08  4320   0.307E-04    0.199E-04
DAV:  14    -0.133094246592E+04   -0.58809E-06   -0.32040E-08  4352   0.247E-04    0.180E-04
DAV:  15    -0.133094246645E+04   -0.53333E-06   -0.20367E-08  3936   0.138E-04    0.148E-04
DAV:  16    -0.133094246685E+04   -0.40114E-06   -0.15180E-08  3872   0.122E-04    0.694E-05
DAV:  17    -0.133094246701E+04   -0.15671E-06   -0.31142E-09  3200   0.641E-05    0.358E-05
DAV:  18    -0.133094246714E+04   -0.13226E-06   -0.46680E-09  3264   0.597E-05    0.540E-05
DAV:  19    -0.133094246719E+04   -0.44529E-07   -0.14592E-09  3136   0.456E-05    0.526E-05
DAV:  20    -0.133094246722E+04   -0.29351E-07   -0.11405E-09  3088   0.434E-05    0.247E-05
DAV:  21    -0.133094246723E+04   -0.91095E-08   -0.55433E-10  3136   0.368E-05
   5 F= -.13499956E+04 E0= -.13499956E+04  d E =0.637562E-03  mag=     0.0000
       N       E                     dE             d eps       ncg     rms          rms(c)
DAV:   1    -0.133094196819E+04    0.49903E-03   -0.11500E+00  5120   0.111E+00    0.984E-02
DAV:   2    -0.133094260013E+04   -0.63194E-03   -0.87184E-03  5632   0.898E-02    0.641E-02
DAV:   3    -0.133094251167E+04    0.88454E-04   -0.71145E-04  6048   0.303E-02    0.300E-02
DAV:   4    -0.133094249786E+04    0.13817E-04   -0.12568E-04  5568   0.136E-02    0.130E-02
DAV:   5    -0.133094249769E+04    0.16449E-06   -0.21113E-05  5600   0.663E-03    0.705E-03
DAV:   6    -0.133094249718E+04    0.50808E-06   -0.38291E-06  5568   0.252E-03    0.278E-03
DAV:   7    -0.133094249729E+04   -0.10904E-06   -0.12448E-06  6992   0.164E-03    0.142E-03
DAV:   8    -0.133094249743E+04   -0.14232E-06   -0.26719E-07  6144   0.726E-04    0.782E-04
DAV:   9    -0.133094249774E+04   -0.30338E-06   -0.58424E-08  4704   0.396E-04    0.459E-04
DAV:  10    -0.133094249813E+04   -0.39251E-06   -0.59122E-08  4864   0.430E-04    0.236E-04
DAV:  11    -0.133094249849E+04   -0.36099E-06   -0.41808E-08  4336   0.296E-04    0.163E-04
DAV:  12    -0.133094249876E+04   -0.27166E-06   -0.17065E-08  3936   0.160E-04    0.118E-04
DAV:  13    -0.133094249899E+04   -0.22381E-06   -0.86374E-09  3392   0.102E-04    0.653E-05
DAV:  14    -0.133094249914E+04   -0.15467E-06   -0.68267E-09  3392   0.790E-05    0.463E-05
DAV:  15    -0.133094249925E+04   -0.11039E-06   -0.48024E-09  3232   0.719E-05    0.272E-05
DAV:  16    -0.133094249931E+04   -0.58862E-07   -0.30801E-09  3072   0.639E-05    0.242E-05
DAV:  17    -0.133094249934E+04   -0.30384E-07   -0.18993E-09  3072   0.524E-05    0.163E-05
DAV:  18    -0.133094249937E+04   -0.29671E-07   -0.16129E-09  3072   0.452E-05    0.123E-05
DAV:  19    -0.133094249938E+04   -0.59517E-08   -0.56783E-10  3072   0.279E-05
   6 F= -.13499957E+04 E0= -.13499957E+04  d E =-.949397E-04  mag=    -0.0000
       N       E                     dE             d eps       ncg     rms          rms(c)
DAV:   1    -0.133094213244E+04    0.36693E-03   -0.11575E+00  5120   0.113E+00    0.184E-01
DAV:   2    -0.133094268507E+04   -0.55263E-03   -0.97357E-03  5696   0.112E-01    0.158E-01
DAV:   3    -0.133094253765E+04    0.14742E-03   -0.10738E-03  6176   0.540E-02    0.769E-02
DAV:   4    -0.133094252645E+04    0.11200E-04   -0.27963E-04  5760   0.277E-02    0.206E-02
DAV:   5    -0.133094251999E+04    0.64626E-05   -0.11346E-04  5472   0.194E-02    0.100E-02
DAV:   6    -0.133094252069E+04   -0.70021E-06   -0.18501E-05  5696   0.545E-03    0.535E-03
DAV:   7    -0.133094252144E+04   -0.74833E-06   -0.32439E-06  6784   0.294E-03    0.322E-03
DAV:   8    -0.133094252299E+04   -0.15472E-05   -0.83598E-07  6048   0.167E-03    0.162E-03
DAV:   9    -0.133094252472E+04   -0.17323E-05   -0.36962E-07  6400   0.112E-03    0.937E-04
DAV:  10    -0.133094252641E+04   -0.16897E-05   -0.18271E-07  5056   0.687E-04    0.564E-04
DAV:  11    -0.133094252847E+04   -0.20607E-05   -0.15624E-07  5056   0.592E-04    0.436E-04
DAV:  12    -0.133094252981E+04   -0.13385E-05   -0.11090E-07  4992   0.450E-04    0.239E-04
DAV:  13    -0.133094253079E+04   -0.98614E-06   -0.46531E-08  4384   0.221E-04    0.241E-04
DAV:  14    -0.133094253147E+04   -0.67246E-06   -0.27386E-08  4224   0.154E-04    0.155E-04
DAV:  15    -0.133094253188E+04   -0.41151E-06   -0.13604E-08  3744   0.115E-04    0.862E-05
DAV:  16    -0.133094253215E+04   -0.27013E-06   -0.78956E-09  3456   0.842E-05    0.567E-05
DAV:  17    -0.133094253235E+04   -0.19878E-06   -0.64637E-09  3360   0.749E-05    0.491E-05
DAV:  18    -0.133094253243E+04   -0.78420E-07   -0.21956E-09  3136   0.544E-05    0.316E-05
DAV:  19    -0.133094253248E+04   -0.53755E-07   -0.18260E-09  3072   0.479E-05    0.196E-05
DAV:  20    -0.133094253251E+04   -0.31068E-07   -0.10418E-09  3136   0.357E-05    0.237E-05
DAV:  21    -0.133094253253E+04   -0.18073E-07   -0.45462E-10  3072   0.255E-05    0.162E-05
DAV:  22    -0.133094253254E+04   -0.12078E-07   -0.29602E-10  3072   0.259E-05    0.601E-06
DAV:  23    -0.133094253254E+04   -0.27212E-08   -0.69847E-12  3136   0.159E-05
   7 F= -.13499961E+04 E0= -.13499961E+04  d E =-.445331E-03  mag=     0.0000
       N       E                     dE             d eps       ncg     rms          rms(c)
DAV:   1    -0.133094169653E+04    0.83601E-03   -0.11515E+00  5120   0.115E+00    0.178E-01
DAV:   2    -0.133094262765E+04   -0.93113E-03   -0.11907E-02  5632   0.112E-01    0.145E-01
DAV:   3    -0.133094248794E+04    0.13971E-03   -0.10320E-03  6592   0.476E-02    0.821E-02
DAV:   4    -0.133094246522E+04    0.22716E-04   -0.44397E-04  5728   0.365E-02    0.240E-02
DAV:   5    -0.133094245479E+04    0.10433E-04   -0.17267E-04  5600   0.230E-02    0.119E-02
DAV:   6    -0.133094245561E+04   -0.81563E-06   -0.27844E-05  5856   0.619E-03    0.705E-03
DAV:   7    -0.133094245574E+04   -0.13363E-06   -0.56925E-06  6816   0.354E-03    0.438E-03
DAV:   8    -0.133094245633E+04   -0.59367E-06   -0.14984E-06  6080   0.227E-03    0.295E-03
DAV:   9    -0.133094245757E+04   -0.12365E-05   -0.82345E-07  6496   0.189E-03    0.994E-04
DAV:  10    -0.133094245908E+04   -0.15107E-05   -0.44494E-07  5536   0.104E-03    0.104E-03
DAV:  11    -0.133094246038E+04   -0.12949E-05   -0.15712E-07  5664   0.587E-04    0.601E-04
DAV:  12    -0.133094246209E+04   -0.17156E-05   -0.13147E-07  4960   0.595E-04    0.298E-04
DAV:  13    -0.133094246318E+04   -0.10896E-05   -0.65574E-08  4480   0.345E-04    0.193E-04
DAV:  14    -0.133094246388E+04   -0.70037E-06   -0.28672E-08  4192   0.176E-04    0.132E-04
DAV:  15    -0.133094246448E+04   -0.60156E-06   -0.14139E-08  3616   0.102E-04    0.911E-05
DAV:  16    -0.133094246488E+04   -0.39858E-06   -0.11141E-08  3648   0.917E-05    0.537E-05
DAV:  17    -0.133094246510E+04   -0.21534E-06   -0.40492E-09  3264   0.601E-05    0.505E-05
DAV:  18    -0.133094246521E+04   -0.11227E-06   -0.25055E-09  3136   0.460E-05    0.351E-05
DAV:  19    -0.133094246527E+04   -0.62937E-07   -0.18683E-09  3072   0.457E-05    0.192E-05
DAV:  20    -0.133094246531E+04   -0.35056E-07   -0.13608E-09  3072   0.364E-05    0.279E-05
DAV:  21    -0.133094246532E+04   -0.14741E-07   -0.48747E-10  3136   0.269E-05    0.241E-05
DAV:  22    -0.133094246533E+04   -0.31141E-08   -0.23812E-10  3072   0.258E-05
   8 F= -.13499957E+04 E0= -.13499957E+04  d E =0.437962E-03  mag=    -0.0000
       N       E                     dE             d eps       ncg     rms          rms(c)
DAV:   1    -0.133094144921E+04    0.10161E-02   -0.11682E+00  5120   0.113E+00    0.316E-01
DAV:   2    -0.133094207724E+04   -0.62803E-03   -0.10902E-02  5824   0.121E-01    0.266E-01
DAV:   3    -0.133094193018E+04    0.14705E-03   -0.27772E-03  5920   0.105E-01    0.572E-02
DAV:   4    -0.133094189931E+04    0.30869E-04   -0.70023E-04  5792   0.411E-02    0.327E-02
DAV:   5    -0.133094188937E+04    0.99427E-05   -0.15537E-04  6144   0.188E-02    0.166E-02
DAV:   6    -0.133094188773E+04    0.16443E-05   -0.30080E-05  6880   0.836E-03    0.700E-03
DAV:   7    -0.133094188842E+04   -0.69337E-06   -0.32145E-06  6304   0.245E-03    0.346E-03
DAV:   8    -0.133094189001E+04   -0.15920E-05   -0.99325E-07  6688   0.162E-03    0.143E-03
DAV:   9    -0.133094189163E+04   -0.16135E-05   -0.31785E-07  6048   0.906E-04    0.856E-04
DAV:  10    -0.133094189368E+04   -0.20518E-05   -0.15978E-07  5184   0.551E-04    0.550E-04
DAV:  11    -0.133094189553E+04   -0.18479E-05   -0.12380E-07  4656   0.513E-04    0.315E-04
DAV:  12    -0.133094189732E+04   -0.17949E-05   -0.10924E-07  4624   0.366E-04    0.254E-04
DAV:  13    -0.133094189824E+04   -0.91433E-06   -0.38151E-08  4512   0.180E-04    0.193E-04
DAV:  14    -0.133094189893E+04   -0.69461E-06   -0.19087E-08  3776   0.134E-04    0.105E-04
DAV:  15    -0.133094189927E+04   -0.34449E-06   -0.69106E-09  3328   0.807E-05    0.720E-05
DAV:  16    -0.133094189953E+04   -0.25857E-06   -0.54554E-09  3200   0.749E-05    0.426E-05
DAV:  17    -0.133094189973E+04   -0.19911E-06   -0.64081E-09  3328   0.787E-05    0.444E-05
DAV:  18    -0.133094189979E+04   -0.61016E-07   -0.25412E-09  3072   0.695E-05    0.270E-05
DAV:  19    -0.133094189985E+04   -0.54410E-07   -0.22113E-09  3072   0.610E-05    0.335E-05
DAV:  20    -0.133094189987E+04   -0.21828E-07   -0.85527E-10  3072   0.389E-05    0.299E-05
DAV:  21    -0.133094189988E+04   -0.95897E-08   -0.30789E-10  3072   0.281E-05
   9 F= -.13499952E+04 E0= -.13499952E+04  d E =0.482226E-03  mag=    -0.0000
       N       E                     dE             d eps       ncg     rms          rms(c)
DAV:   1    -0.133094199620E+04   -0.96328E-04   -0.11457E+00  5120   0.113E+00    0.240E-01
DAV:   2    -0.133094293529E+04   -0.93909E-03   -0.12101E-02  5792   0.102E-01    0.178E-01
DAV:   3    -0.133094274997E+04    0.18532E-03   -0.13156E-03  6208   0.535E-02    0.806E-02
DAV:   4    -0.133094273558E+04    0.14385E-04   -0.31355E-04  5888   0.208E-02    0.311E-02
DAV:   5    -0.133094273142E+04    0.41658E-05   -0.14503E-04  5984   0.195E-02    0.126E-02
DAV:   6    -0.133094273346E+04   -0.20443E-05   -0.21256E-05  5664   0.594E-03    0.628E-03
DAV:   7    -0.133094273960E+04   -0.61375E-05   -0.68747E-06  6976   0.365E-03    0.317E-03
DAV:   8    -0.133094274394E+04   -0.43421E-05   -0.93827E-07  6384   0.144E-03    0.198E-03
DAV:   9    -0.133094275208E+04   -0.81361E-05   -0.12714E-06  5120   0.158E-03    0.149E-03
DAV:  10    -0.133094275884E+04   -0.67654E-05   -0.53655E-07  6304   0.774E-04    0.138E-03
DAV:  11    -0.133094276533E+04   -0.64891E-05   -0.80321E-07  5536   0.959E-04    0.614E-04
DAV:  12    -0.133094277029E+04   -0.49535E-05   -0.40721E-07  5056   0.610E-04    0.774E-04
DAV:  13    -0.133094277247E+04   -0.21840E-05   -0.12314E-07  5008   0.315E-04    0.393E-04
DAV:  14    -0.133094277454E+04   -0.20714E-05   -0.11669E-07  4736   0.284E-04    0.234E-04
DAV:  15    -0.133094277551E+04   -0.96702E-06   -0.29222E-08  4512   0.133E-04    0.168E-04
DAV:  16    -0.133094277621E+04   -0.69760E-06   -0.21219E-08  4288   0.118E-04    0.113E-04
DAV:  17    -0.133094277662E+04   -0.41096E-06   -0.10360E-08  3632   0.995E-05    0.733E-05
DAV:  18    -0.133094277677E+04   -0.15086E-06   -0.35742E-09  3136   0.818E-05    0.363E-05
DAV:  19    -0.133094277686E+04   -0.95228E-07   -0.29248E-09  3072   0.694E-05    0.344E-05
DAV:  20    -0.133094277694E+04   -0.72818E-07   -0.17837E-09  3072   0.496E-05    0.380E-05
DAV:  21    -0.133094277697E+04   -0.32102E-07   -0.75781E-10  3136   0.393E-05    0.202E-05
DAV:  22    -0.133094277698E+04   -0.15250E-07   -0.41958E-10  3072   0.335E-05    0.156E-05
DAV:  23    -0.133094277699E+04   -0.89349E-08   -0.11964E-10  3072   0.202E-05
  10 F= -.13499962E+04 E0= -.13499962E+04  d E =-.100893E-02  mag=     0.0000
       N       E                     dE             d eps       ncg     rms          rms(c)
DAV:   1    -0.133094148151E+04    0.12955E-02   -0.61452E-01  5120   0.827E-01    0.156E-01
DAV:   2    -0.133094180901E+04   -0.32750E-03   -0.70579E-03  5888   0.832E-02    0.102E-01
DAV:   3    -0.133094168511E+04    0.12391E-03   -0.10536E-03  6176   0.420E-02    0.501E-02
DAV:   4    -0.133094167759E+04    0.75164E-05   -0.15489E-04  5984   0.152E-02    0.225E-02
DAV:   5    -0.133094167142E+04    0.61705E-05   -0.44746E-05  5728   0.100E-02    0.836E-03
DAV:   6    -0.133094167084E+04    0.58358E-06   -0.69022E-06  6464   0.385E-03    0.379E-03
DAV:   7    -0.133094167201E+04   -0.11738E-05   -0.15900E-06  6208   0.184E-03    0.221E-03
DAV:   8    -0.133094167343E+04   -0.14213E-05   -0.39131E-07  6496   0.112E-03    0.121E-03
DAV:   9    -0.133094167629E+04   -0.28577E-05   -0.28922E-07  5120   0.113E-03    0.778E-04
DAV:  10    -0.133094167864E+04   -0.23506E-05   -0.27755E-07  5920   0.744E-04    0.567E-04
DAV:  11    -0.133094168126E+04   -0.26261E-05   -0.14002E-07  4704   0.470E-04    0.305E-04
DAV:  12    -0.133094168335E+04   -0.20883E-05   -0.11421E-07  4576   0.362E-04    0.262E-04
DAV:  13    -0.133094168474E+04   -0.13887E-05   -0.52830E-08  4544   0.213E-04    0.167E-04
DAV:  14    -0.133094168553E+04   -0.79017E-06   -0.17456E-08  4032   0.129E-04    0.131E-04
DAV:  15    -0.133094168610E+04   -0.57045E-06   -0.11506E-08  3616   0.111E-04    0.683E-05
DAV:  16    -0.133094168651E+04   -0.40607E-06   -0.86728E-09  3584   0.752E-05    0.500E-05
DAV:  17    -0.133094168669E+04   -0.18458E-06   -0.26734E-09  3072   0.497E-05    0.256E-05
DAV:  18    -0.133094168680E+04   -0.10247E-06   -0.21072E-09  3072   0.436E-05    0.246E-05
DAV:  19    -0.133094168683E+04   -0.36336E-07   -0.11123E-09  3136   0.349E-05    0.209E-05
DAV:  20    -0.133094168685E+04   -0.16080E-07   -0.52475E-10  3072   0.299E-05    0.956E-06
DAV:  21    -0.133094168686E+04   -0.71886E-08   -0.20285E-10  3072   0.232E-05
  11 F= -.13499950E+04 E0= -.13499950E+04  d E =0.123420E-02  mag=     0.0000
       N       E                     dE             d eps       ncg     rms          rms(c)
DAV:   1    -0.133094283093E+04   -0.11441E-02   -0.75128E-02  4864   0.119E-01    0.968E-02
DAV:   2    -0.133094278307E+04    0.47866E-04   -0.63692E-04  4864   0.119E-02    0.564E-02
DAV:   3    -0.133094277425E+04    0.88139E-05   -0.32732E-04  5440   0.931E-03    0.172E-02
DAV:   4    -0.133094276837E+04    0.58844E-05   -0.34526E-05  4832   0.309E-03    0.114E-02
DAV:   5    -0.133094276728E+04    0.10900E-05   -0.14704E-05  4608   0.200E-03    0.223E-03
DAV:   6    -0.133094276747E+04   -0.18658E-06   -0.11017E-06  4736   0.624E-04    0.104E-03
DAV:   7    -0.133094276770E+04   -0.23805E-06   -0.21641E-07  4160   0.255E-04    0.853E-04
DAV:   8    -0.133094276804E+04   -0.33600E-06   -0.82393E-08  4000   0.201E-04    0.221E-04
DAV:   9    -0.133094276829E+04   -0.24588E-06   -0.27940E-08  3888   0.140E-04    0.251E-04
DAV:  10    -0.133094276854E+04   -0.25277E-06   -0.11516E-08  3584   0.979E-05    0.102E-04
DAV:  11    -0.133094276873E+04   -0.19111E-06   -0.88353E-09  3456   0.832E-05    0.798E-05
DAV:  12    -0.133094276889E+04   -0.16378E-06   -0.90959E-09  3472   0.101E-04    0.445E-05
DAV:  13    -0.133094276895E+04   -0.54613E-07   -0.43466E-09  3200   0.102E-04    0.329E-05
DAV:  14    -0.133094276901E+04   -0.61817E-07   -0.32151E-09  3072   0.716E-05    0.186E-05
DAV:  15    -0.133094276905E+04   -0.41502E-07   -0.23354E-09  3056   0.499E-05    0.211E-05
DAV:  16    -0.133094276906E+04   -0.93860E-08   -0.76161E-10  3136   0.317E-05
  12 F= -.13499960E+04 E0= -.13499960E+04  d E =-.100643E-02  mag=    -0.0000
       N       E                     dE             d eps       ncg     rms          rms(c)
DAV:   1    -0.133094321356E+04   -0.44451E-03   -0.72776E-02  4992   0.119E-01    0.811E-02
DAV:   2    -0.133094322035E+04   -0.67971E-05   -0.47378E-04  5312   0.100E-02    0.488E-02
DAV:   3    -0.133094322104E+04   -0.68758E-06   -0.12193E-04  5440   0.575E-03    0.908E-03
DAV:   4    -0.133094321962E+04    0.14206E-05   -0.11443E-05  4640   0.187E-03    0.561E-03
DAV:   5    -0.133094321946E+04    0.15854E-06   -0.72027E-06  4544   0.148E-03    0.150E-03
DAV:   6    -0.133094321963E+04   -0.16672E-06   -0.60818E-07  4448   0.502E-04    0.847E-04
DAV:   7    -0.133094321990E+04   -0.27494E-06   -0.10259E-07  3872   0.227E-04    0.335E-04
DAV:   8    -0.133094322020E+04   -0.29452E-06   -0.28104E-08  3552   0.119E-04    0.201E-04
DAV:   9    -0.133094322057E+04   -0.37112E-06   -0.17547E-08  3712   0.122E-04    0.123E-04
DAV:  10    -0.133094322083E+04   -0.26067E-06   -0.10616E-08  3488   0.114E-04    0.715E-05
DAV:  11    -0.133094322103E+04   -0.20400E-06   -0.78829E-09  3344   0.961E-05    0.537E-05
DAV:  12    -0.133094322118E+04   -0.14578E-06   -0.66117E-09  3248   0.112E-04    0.399E-05
DAV:  13    -0.133094322130E+04   -0.12526E-06   -0.70134E-09  3360   0.103E-04    0.267E-05
DAV:  14    -0.133094322137E+04   -0.65949E-07   -0.29672E-09  3136   0.593E-05    0.199E-05
DAV:  15    -0.133094322141E+04   -0.35434E-07   -0.16811E-09  3072   0.454E-05    0.139E-05
DAV:  16    -0.133094322142E+04   -0.10681E-07   -0.78707E-10  3072   0.307E-05    0.157E-05
DAV:  17    -0.133094322142E+04   -0.58499E-08   -0.17543E-10  3136   0.189E-05
  13 F= -.13499962E+04 E0= -.13499962E+04  d E =-.224479E-03  mag=    -0.0000
       N       E                     dE             d eps       ncg     rms          rms(c)
DAV:   1    -0.133094264489E+04    0.57653E-03   -0.73675E-02  4928   0.164E-01    0.857E-02
DAV:   2    -0.133094264977E+04   -0.48867E-05   -0.64935E-04  4992   0.150E-02    0.522E-02
DAV:   3    -0.133094264829E+04    0.14832E-05   -0.21817E-04  5408   0.856E-03    0.133E-02
DAV:   4    -0.133094264510E+04    0.31949E-05   -0.25484E-05  4832   0.289E-03    0.878E-03
DAV:   5    -0.133094264448E+04    0.61208E-06   -0.11838E-05  4672   0.192E-03    0.182E-03
DAV:   6    -0.133094264493E+04   -0.44784E-06   -0.82175E-07  4352   0.575E-04    0.101E-03
DAV:   7    -0.133094264546E+04   -0.52931E-06   -0.19573E-07  4192   0.286E-04    0.519E-04
DAV:   8    -0.133094264594E+04   -0.47949E-06   -0.41388E-08  3712   0.139E-04    0.271E-04
DAV:   9    -0.133094264647E+04   -0.52998E-06   -0.30632E-08  3840   0.113E-04    0.139E-04
DAV:  10    -0.133094264684E+04   -0.36987E-06   -0.10621E-08  3424   0.855E-05    0.107E-04
DAV:  11    -0.133094264715E+04   -0.31004E-06   -0.12109E-08  3584   0.106E-04    0.472E-05
DAV:  12    -0.133094264734E+04   -0.18456E-06   -0.87200E-09  3392   0.122E-04    0.467E-05
DAV:  13    -0.133094264744E+04   -0.10659E-06   -0.45832E-09  3200   0.830E-05    0.320E-05
DAV:  14    -0.133094264753E+04   -0.90527E-07   -0.31469E-09  3136   0.511E-05    0.152E-05
DAV:  15    -0.133094264758E+04   -0.45868E-07   -0.17291E-09  3072   0.431E-05    0.178E-05
DAV:  16    -0.133094264760E+04   -0.18714E-07   -0.78336E-10  3072   0.270E-05    0.112E-05
DAV:  17    -0.133094264761E+04   -0.15309E-07   -0.40810E-10  3072   0.210E-05    0.848E-06
DAV:  18    -0.133094264762E+04   -0.43947E-08   -0.54663E-11  3072   0.145E-05
  14 F= -.13499959E+04 E0= -.13499959E+04  d E =0.325429E-03  mag=     0.0000
       N       E                     dE             d eps       ncg     rms          rms(c)
DAV:   1    -0.133094274276E+04   -0.95153E-04   -0.75287E-02  4352   0.177E-01    0.957E-02
DAV:   2    -0.133094270274E+04    0.40027E-04   -0.66879E-04  4800   0.161E-02    0.565E-02
DAV:   3    -0.133094269357E+04    0.91721E-05   -0.31198E-04  5440   0.101E-02    0.164E-02
DAV:   4    -0.133094268854E+04    0.50277E-05   -0.31113E-05  4992   0.337E-03    0.105E-02
DAV:   5    -0.133094268813E+04    0.40399E-06   -0.15057E-05  4576   0.224E-03    0.191E-03
DAV:   6    -0.133094268866E+04   -0.52735E-06   -0.94104E-07  4992   0.739E-04    0.103E-03
DAV:   7    -0.133094268933E+04   -0.66338E-06   -0.17559E-07  4480   0.287E-04    0.667E-04
DAV:   8    -0.133094269010E+04   -0.77461E-06   -0.51140E-08  3776   0.162E-04    0.277E-04
DAV:   9    -0.133094269075E+04   -0.65283E-06   -0.29853E-08  3776   0.116E-04    0.180E-04
DAV:  10    -0.133094269145E+04   -0.69811E-06   -0.24111E-08  3808   0.956E-05    0.129E-04
DAV:  11    -0.133094269194E+04   -0.48576E-06   -0.17939E-08  3680   0.942E-05    0.666E-05
DAV:  12    -0.133094269229E+04   -0.35617E-06   -0.14171E-08  3616   0.975E-05    0.658E-05
DAV:  13    -0.133094269243E+04   -0.14149E-06   -0.45949E-09  3328   0.877E-05    0.494E-05
DAV:  14    -0.133094269257E+04   -0.13679E-06   -0.46864E-09  3296   0.742E-05    0.285E-05
DAV:  15    -0.133094269263E+04   -0.61569E-07   -0.19497E-09  3136   0.544E-05    0.239E-05
DAV:  16    -0.133094269267E+04   -0.37369E-07   -0.12074E-09  3072   0.445E-05    0.168E-05
DAV:  17    -0.133094269270E+04   -0.25044E-07   -0.65254E-10  3072   0.329E-05    0.162E-05
DAV:  18    -0.133094269270E+04   -0.82218E-08   -0.14188E-10  3136   0.186E-05
  15 F= -.13499960E+04 E0= -.13499960E+04  d E =-.113683E-03  mag=     0.0000
       N       E                     dE             d eps       ncg     rms          rms(c)
DAV:   1    -0.133094198550E+04    0.70720E-03   -0.74963E-02  4352   0.178E-01    0.959E-02
DAV:   2    -0.133094194786E+04    0.37631E-04   -0.71701E-04  4608   0.167E-02    0.555E-02
DAV:   3    -0.133094193943E+04    0.84315E-05   -0.28765E-04  5424   0.970E-03    0.161E-02
DAV:   4    -0.133094193475E+04    0.46869E-05   -0.29556E-05  4928   0.324E-03    0.101E-02
DAV:   5    -0.133094193431E+04    0.43400E-06   -0.12765E-05  4672   0.199E-03    0.170E-03
DAV:   6    -0.133094193466E+04   -0.34398E-06   -0.77363E-07  4752   0.592E-04    0.922E-04
DAV:   7    -0.133094193510E+04   -0.44092E-06   -0.14405E-07  4288   0.247E-04    0.536E-04
DAV:   8    -0.133094193559E+04   -0.49798E-06   -0.33571E-08  3904   0.135E-04    0.238E-04
DAV:   9    -0.133094193607E+04   -0.47783E-06   -0.21794E-08  3904   0.106E-04    0.145E-04
DAV:  10    -0.133094193660E+04   -0.52298E-06   -0.21233E-08  4032   0.110E-04    0.105E-04
DAV:  11    -0.133094193695E+04   -0.35041E-06   -0.15275E-08  3744   0.136E-04    0.540E-05
DAV:  12    -0.133094193712E+04   -0.17929E-06   -0.85506E-09  3424   0.131E-04    0.547E-05
DAV:  13    -0.133094193723E+04   -0.10744E-06   -0.47165E-09  3168   0.956E-05    0.353E-05
DAV:  14    -0.133094193735E+04   -0.11764E-06   -0.58007E-09  3456   0.722E-05    0.249E-05
DAV:  15    -0.133094193738E+04   -0.27459E-07   -0.14260E-09  3136   0.500E-05    0.173E-05
DAV:  16    -0.133094193741E+04   -0.28318E-07   -0.93187E-10  3072   0.345E-05    0.152E-05
DAV:  17    -0.133094193742E+04   -0.12878E-07   -0.30374E-10  3072   0.238E-05    0.126E-05
DAV:  18    -0.133094193742E+04   -0.49477E-08   -0.41554E-11  3072   0.169E-05
  16 F= -.13499952E+04 E0= -.13499952E+04  d E =0.836910E-03  mag=    -0.0000
       N       E                     dE             d eps       ncg     rms          rms(c)
DAV:   1    -0.133094274676E+04   -0.80934E-03   -0.78833E-02  4864   0.179E-01    0.113E-01
DAV:   2    -0.133094268103E+04    0.65725E-04   -0.12536E-03  5504   0.236E-02    0.675E-02
DAV:   3    -0.133094265173E+04    0.29299E-04   -0.63344E-04  5376   0.143E-02    0.243E-02
DAV:   4    -0.133094264025E+04    0.11489E-04   -0.61739E-05  5120   0.462E-03    0.146E-02
DAV:   5    -0.133094263803E+04    0.22162E-05   -0.29455E-05  4960   0.304E-03    0.210E-03
DAV:   6    -0.133094263817E+04   -0.14046E-06   -0.12871E-06  5152   0.861E-04    0.126E-03
DAV:   7    -0.133094263827E+04   -0.97629E-07   -0.20641E-07  4672   0.329E-04    0.671E-04
DAV:   8    -0.133094263842E+04   -0.15342E-06   -0.38460E-08  3680   0.213E-04    0.289E-04
DAV:   9    -0.133094263860E+04   -0.17842E-06   -0.19302E-08  3712   0.155E-04    0.167E-04
DAV:  10    -0.133094263882E+04   -0.22331E-06   -0.11462E-08  3552   0.115E-04    0.964E-05
DAV:  11    -0.133094263898E+04   -0.15559E-06   -0.65850E-09  3328   0.821E-05    0.740E-05
DAV:  12    -0.133094263914E+04   -0.15774E-06   -0.85840E-09  3456   0.106E-04    0.506E-05
DAV:  13    -0.133094263922E+04   -0.79905E-07   -0.52492E-09  3200   0.966E-05    0.501E-05
DAV:  14    -0.133094263926E+04   -0.48938E-07   -0.30262E-09  3072   0.705E-05    0.253E-05
DAV:  15    -0.133094263932E+04   -0.51819E-07   -0.35245E-09  3136   0.654E-05    0.354E-05
DAV:  16    -0.133094263933E+04   -0.13213E-07   -0.12201E-09  3136   0.416E-05    0.270E-05
DAV:  17    -0.133094263934E+04   -0.10914E-07   -0.64396E-10  3072   0.320E-05    0.128E-05
DAV:  18    -0.133094263935E+04   -0.10798E-07   -0.30846E-10  3072   0.231E-05    0.200E-05
DAV:  19    -0.133094263936E+04   -0.51077E-08   -0.39744E-11  3072   0.156E-05
  17 F= -.13499959E+04 E0= -.13499959E+04  d E =-.784935E-03  mag=    -0.0000
       N       E                     dE             d eps       ncg     rms          rms(c)
DAV:   1    -0.133094268463E+04   -0.45282E-04   -0.79018E-02  5056   0.162E-01    0.118E-01
DAV:   2    -0.133094255520E+04    0.12943E-03   -0.10013E-03  5440   0.200E-02    0.669E-02
DAV:   3    -0.133094252612E+04    0.29086E-04   -0.60792E-04  5568   0.136E-02    0.236E-02
DAV:   4    -0.133094251542E+04    0.10691E-04   -0.59409E-05  5568   0.434E-03    0.152E-02
DAV:   5    -0.133094251368E+04    0.17400E-05   -0.23816E-05  5312   0.274E-03    0.282E-03
DAV:   6    -0.133094251367E+04    0.16487E-07   -0.19206E-06  5344   0.101E-03    0.125E-03
DAV:   7    -0.133094251376E+04   -0.90731E-07   -0.27266E-07  4640   0.331E-04    0.103E-03
DAV:   8    -0.133094251385E+04   -0.92827E-07   -0.53979E-08  3744   0.243E-04    0.337E-04
DAV:   9    -0.133094251394E+04   -0.88461E-07   -0.36346E-08  4032   0.198E-04    0.232E-04
DAV:  10    -0.133094251402E+04   -0.79905E-07   -0.97405E-09  3424   0.120E-04    0.107E-04
DAV:  11    -0.133094251410E+04   -0.76063E-07   -0.46847E-09  3200   0.112E-04    0.691E-05
DAV:  12    -0.133094251419E+04   -0.97643E-07   -0.89137E-09  3328   0.145E-04    0.586E-05
DAV:  13    -0.133094251423E+04   -0.34415E-07   -0.57110E-09  3264   0.122E-04    0.589E-05
DAV:  14    -0.133094251425E+04   -0.23880E-07   -0.29233E-09  3072   0.816E-05    0.444E-05
DAV:  15    -0.133094251428E+04   -0.26368E-07   -0.22058E-09  3072   0.586E-05    0.322E-05
DAV:  16    -0.133094251429E+04   -0.71595E-08   -0.93321E-10  3136   0.405E-05
  18 F= -.13499957E+04 E0= -.13499957E+04  d E =0.204359E-03  mag=     0.0000
       N       E                     dE             d eps       ncg     rms          rms(c)
DAV:   1    -0.133094282156E+04   -0.30729E-03   -0.82557E-02  5056   0.165E-01    0.134E-01
DAV:   2    -0.133094263236E+04    0.18921E-03   -0.13975E-03  5312   0.227E-02    0.760E-02
DAV:   3    -0.133094258330E+04    0.49060E-04   -0.83140E-04  5376   0.158E-02    0.277E-02
DAV:   4    -0.133094256831E+04    0.14990E-04   -0.83338E-05  5312   0.511E-03    0.176E-02
DAV:   5    -0.133094256648E+04    0.18256E-05   -0.25712E-05  5792   0.284E-03    0.365E-03
DAV:   6    -0.133094256626E+04    0.21604E-06   -0.23935E-06  5120   0.103E-03    0.130E-03
DAV:   7    -0.133094256629E+04   -0.23807E-07   -0.38669E-07  4928   0.389E-04    0.939E-04
DAV:   8    -0.133094256638E+04   -0.89669E-07   -0.45109E-08  3648   0.235E-04    0.381E-04
DAV:   9    -0.133094256650E+04   -0.12538E-06   -0.39037E-08  3808   0.205E-04    0.209E-04
DAV:  10    -0.133094256667E+04   -0.16458E-06   -0.10942E-08  3456   0.132E-04    0.112E-04
DAV:  11    -0.133094256680E+04   -0.13436E-06   -0.81994E-09  3392   0.122E-04    0.727E-05
DAV:  12    -0.133094256695E+04   -0.14510E-06   -0.11951E-08  3616   0.148E-04    0.542E-05
DAV:  13    -0.133094256702E+04   -0.68641E-07   -0.58176E-09  3264   0.117E-04    0.469E-05
DAV:  14    -0.133094256707E+04   -0.56141E-07   -0.28652E-09  3072   0.682E-05    0.290E-05
DAV:  15    -0.133094256715E+04   -0.74564E-07   -0.41083E-09  3264   0.649E-05    0.328E-05
DAV:  16    -0.133094256716E+04   -0.13868E-07   -0.11389E-09  3136   0.431E-05    0.242E-05
DAV:  17    -0.133094256718E+04   -0.23269E-07   -0.95372E-10  3072   0.379E-05    0.259E-05
DAV:  18    -0.133094256720E+04   -0.17026E-07   -0.44013E-10  3072   0.272E-05    0.229E-05
DAV:  19    -0.133094256721E+04   -0.53697E-08   -0.10793E-10  3136   0.200E-05
  19 F= -.13499956E+04 E0= -.13499956E+04  d E =0.174316E-03  mag=    -0.0000
       N       E                     dE             d eps       ncg     rms          rms(c)
DAV:   1    -0.133094292877E+04   -0.36157E-03   -0.75517E-02  5120   0.155E-01    0.984E-02
DAV:   2    -0.133094289940E+04    0.29368E-04   -0.87686E-04  5568   0.164E-02    0.597E-02
DAV:   3    -0.133094288165E+04    0.17752E-04   -0.38912E-04  5216   0.109E-02    0.191E-02
DAV:   4    -0.133094287411E+04    0.75358E-05   -0.47117E-05  5024   0.370E-03    0.121E-02
DAV:   5    -0.133094287298E+04    0.11378E-05   -0.17858E-05  4800   0.227E-03    0.249E-03
DAV:   6    -0.133094287314E+04   -0.16262E-06   -0.13672E-06  4448   0.661E-04    0.120E-03
DAV:   7    -0.133094287333E+04   -0.19142E-06   -0.26007E-07  4160   0.306E-04    0.692E-04
DAV:   8    -0.133094287358E+04   -0.25122E-06   -0.46866E-08  3680   0.187E-04    0.295E-04
DAV:   9    -0.133094287385E+04   -0.26920E-06   -0.34293E-08  3968   0.166E-04    0.189E-04
DAV:  10    -0.133094287407E+04   -0.22369E-06   -0.10077E-08  3520   0.975E-05    0.953E-05
DAV:  11    -0.133094287423E+04   -0.15424E-06   -0.62719E-09  3360   0.745E-05    0.612E-05
DAV:  12    -0.133094287438E+04   -0.14815E-06   -0.77717E-09  3488   0.918E-05    0.387E-05
DAV:  13    -0.133094287443E+04   -0.57087E-07   -0.34427E-09  3136   0.834E-05    0.324E-05
DAV:  14    -0.133094287448E+04   -0.45868E-07   -0.26241E-09  3072   0.695E-05    0.191E-05
DAV:  15    -0.133094287453E+04   -0.47832E-07   -0.26221E-09  3072   0.595E-05    0.205E-05
DAV:  16    -0.133094287454E+04   -0.92259E-08   -0.86783E-10  3136   0.344E-05
  20 F= -.13499962E+04 E0= -.13499962E+04  d E =-.628514E-03  mag=     0.0000
       N       E                     dE             d eps       ncg     rms          rms(c)
DAV:   1    -0.133094169491E+04    0.11796E-02   -0.78327E-02  5056   0.128E-01    0.113E-01
DAV:   2    -0.133094158676E+04    0.10814E-03   -0.81065E-04  5184   0.147E-02    0.636E-02
DAV:   3    -0.133094156494E+04    0.21820E-04   -0.46155E-04  5120   0.115E-02    0.208E-02
DAV:   4    -0.133094155674E+04    0.82014E-05   -0.44581E-05  4736   0.370E-03    0.136E-02
DAV:   5    -0.133094155566E+04    0.10812E-05   -0.15905E-05  4896   0.224E-03    0.278E-03
DAV:   6    -0.133094155570E+04   -0.36496E-07   -0.16676E-06  4864   0.777E-04    0.105E-03
DAV:   7    -0.133094155586E+04   -0.15870E-06   -0.26833E-07  4576   0.300E-04    0.950E-04
DAV:   8    -0.133094155607E+04   -0.21071E-06   -0.62833E-08  3776   0.197E-04    0.264E-04
DAV:   9    -0.133094155625E+04   -0.18009E-06   -0.34123E-08  3904   0.160E-04    0.294E-04
DAV:  10    -0.133094155645E+04   -0.20060E-06   -0.19519E-08  3808   0.145E-04    0.109E-04
DAV:  11    -0.133094155657E+04   -0.12606E-06   -0.94458E-09  3392   0.130E-04    0.838E-05
DAV:  12    -0.133094155668E+04   -0.10448E-06   -0.94823E-09  3424   0.132E-04    0.450E-05
DAV:  13    -0.133094155674E+04   -0.56709E-07   -0.46597E-09  3232   0.919E-05    0.352E-05
DAV:  14    -0.133094155678E+04   -0.44340E-07   -0.23383E-09  3072   0.543E-05    0.287E-05
DAV:  15    -0.133094155682E+04   -0.40949E-07   -0.26271E-09  3136   0.497E-05    0.267E-05
DAV:  16    -0.133094155683E+04   -0.52969E-08   -0.82432E-10  3136   0.323E-05
  21 F= -.13499948E+04 E0= -.13499948E+04  d E =0.141482E-02  mag=    -0.0000
       N       E                     dE             d eps       ncg     rms          rms(c)
DAV:   1    -0.133094318197E+04   -0.16251E-02   -0.76992E-02  4864   0.129E-01    0.107E-01
DAV:   2    -0.133094310295E+04    0.79012E-04   -0.80100E-04  5280   0.155E-02    0.602E-02
DAV:   3    -0.133094308767E+04    0.15283E-04   -0.37451E-04  5536   0.106E-02    0.188E-02
DAV:   4    -0.133094308116E+04    0.65108E-05   -0.35508E-05  5088   0.338E-03    0.118E-02
DAV:   5    -0.133094308070E+04    0.45486E-06   -0.15311E-05  4992   0.223E-03    0.196E-03
DAV:   6    -0.133094308077E+04   -0.61147E-07   -0.10327E-06  4960   0.751E-04    0.104E-03
DAV:   7    -0.133094308086E+04   -0.99055E-07   -0.15853E-07  4320   0.256E-04    0.694E-04
DAV:   8    -0.133094308097E+04   -0.10506E-06   -0.29321E-08  3520   0.162E-04    0.235E-04
DAV:   9    -0.133094308107E+04   -0.96101E-07   -0.18649E-08  3584   0.148E-04    0.165E-04
DAV:  10    -0.133094308117E+04   -0.99360E-07   -0.93912E-09  3360   0.137E-04    0.905E-05
DAV:  11    -0.133094308122E+04   -0.53464E-07   -0.55797E-09  3200   0.119E-04    0.643E-05
DAV:  12    -0.133094308128E+04   -0.59852E-07   -0.59157E-09  3232   0.122E-04    0.418E-05
DAV:  13    -0.133094308131E+04   -0.26819E-07   -0.38365E-09  3200   0.968E-05    0.400E-05
DAV:  14    -0.133094308133E+04   -0.25801E-07   -0.19687E-09  3072   0.605E-05    0.314E-05
DAV:  15    -0.133094308135E+04   -0.20722E-07   -0.15494E-09  3072   0.450E-05    0.296E-05
DAV:  16    -0.133094308136E+04   -0.34343E-08   -0.54732E-10  3136   0.317E-05
  22 F= -.13499960E+04 E0= -.13499960E+04  d E =-.124256E-02  mag=    -0.0000
       N       E                     dE             d eps       ncg     rms          rms(c)
DAV:   1    -0.133094262946E+04    0.45189E-03   -0.74546E-02  4992   0.158E-01    0.900E-02
DAV:   2    -0.133094260715E+04    0.22311E-04   -0.49970E-04  5248   0.136E-02    0.526E-02
DAV:   3    -0.133094259700E+04    0.10149E-04   -0.14864E-04  5440   0.713E-03    0.962E-03
DAV:   4    -0.133094259689E+04    0.11032E-06   -0.18795E-05  4832   0.212E-03    0.554E-03
DAV:   5    -0.133094259648E+04    0.40549E-06   -0.48306E-06  4992   0.128E-03    0.158E-03
DAV:   6    -0.133094259669E+04   -0.20402E-06   -0.47838E-07  4672   0.512E-04    0.854E-04
DAV:   7    -0.133094259688E+04   -0.19003E-06   -0.10254E-07  4000   0.244E-04    0.300E-04
DAV:   8    -0.133094259708E+04   -0.20592E-06   -0.25530E-08  3552   0.108E-04    0.198E-04
DAV:   9    -0.133094259736E+04   -0.28091E-06   -0.12844E-08  3488   0.996E-05    0.104E-04
DAV:  10    -0.133094259758E+04   -0.22069E-06   -0.10568E-08  3456   0.106E-04    0.649E-05
DAV:  11    -0.133094259778E+04   -0.20053E-06   -0.13341E-08  3648   0.154E-04    0.630E-05
DAV:  12    -0.133094259789E+04   -0.10316E-06   -0.89600E-09  3392   0.155E-04    0.386E-05
DAV:  13    -0.133094259795E+04   -0.67128E-07   -0.37692E-09  3200   0.798E-05    0.200E-05
DAV:  14    -0.133094259800E+04   -0.45926E-07   -0.19005E-09  3072   0.466E-05    0.174E-05
DAV:  15    -0.133094259802E+04   -0.20707E-07   -0.85924E-10  3136   0.333E-05    0.123E-05
DAV:  16    -0.133094259804E+04   -0.16735E-07   -0.44914E-10  3072   0.236E-05    0.660E-06
DAV:  17    -0.133094259805E+04   -0.97207E-08   -0.12534E-10  3072   0.166E-05
  23 F= -.13499959E+04 E0= -.13499959E+04  d E =0.133871E-03  mag=     0.0000
       N       E                     dE             d eps       ncg     rms          rms(c)
DAV:   1    -0.133094260726E+04   -0.92209E-05   -0.78156E-02  5056   0.170E-01    0.114E-01
DAV:   2    -0.133094250464E+04    0.10261E-03   -0.95600E-04  5280   0.202E-02    0.650E-02
DAV:   3    -0.133094247806E+04    0.26588E-04   -0.51933E-04  5568   0.128E-02    0.220E-02
DAV:   4    -0.133094246949E+04    0.85707E-05   -0.50510E-05  4896   0.403E-03    0.139E-02
DAV:   5    -0.133094246831E+04    0.11743E-05   -0.18916E-05  5216   0.242E-03    0.255E-03
DAV:   6    -0.133094246834E+04   -0.29424E-07   -0.15215E-06  4992   0.836E-04    0.106E-03
DAV:   7    -0.133094246845E+04   -0.10607E-06   -0.22968E-07  4720   0.295E-04    0.815E-04
DAV:   8    -0.133094246854E+04   -0.90207E-07   -0.36637E-08  3584   0.178E-04    0.261E-04
DAV:   9    -0.133094246861E+04   -0.73676E-07   -0.17593E-08  3744   0.130E-04    0.153E-04
DAV:  10    -0.133094246867E+04   -0.61482E-07   -0.55439E-09  3328   0.924E-05    0.851E-05
DAV:  11    -0.133094246872E+04   -0.44456E-07   -0.22022E-09  3072   0.746E-05    0.550E-05
DAV:  12    -0.133094246878E+04   -0.62864E-07   -0.41610E-09  3136   0.909E-05    0.608E-05
DAV:  13    -0.133094246880E+04   -0.17884E-07   -0.20094E-09  3136   0.675E-05    0.434E-05
DAV:  14    -0.133094246881E+04   -0.16997E-07   -0.18051E-09  3072   0.572E-05    0.536E-05
DAV:  15    -0.133094246883E+04   -0.18263E-07   -0.97892E-10  3072   0.436E-05    0.409E-05
DAV:  16    -0.133094246884E+04   -0.56461E-08   -0.47103E-10  3136   0.294E-05
  24 F= -.13499957E+04 E0= -.13499957E+04  d E =0.169057E-03  mag=    -0.0000
       N       E                     dE             d eps       ncg     rms          rms(c)
DAV:   1    -0.133094283551E+04   -0.36667E-03   -0.81729E-02  5056   0.175E-01    0.130E-01
DAV:   2    -0.133094267866E+04    0.15684E-03   -0.13013E-03  5376   0.234E-02    0.735E-02
DAV:   3    -0.133094263495E+04    0.43713E-04   -0.73067E-04  5280   0.153E-02    0.264E-02
DAV:   4    -0.133094262295E+04    0.12002E-04   -0.68916E-05  4800   0.473E-03    0.169E-02
DAV:   5    -0.133094262075E+04    0.21933E-05   -0.22160E-05  5184   0.261E-03    0.349E-03
DAV:   6    -0.133094262057E+04    0.18071E-06   -0.20910E-06  4928   0.938E-04    0.117E-03
DAV:   7    -0.133094262064E+04   -0.67157E-07   -0.36724E-07  4896   0.379E-04    0.760E-04
DAV:   8    -0.133094262080E+04   -0.16080E-06   -0.45711E-08  3712   0.214E-04    0.277E-04
DAV:   9    -0.133094262096E+04   -0.15843E-06   -0.24418E-08  3584   0.152E-04    0.177E-04
DAV:  10    -0.133094262117E+04   -0.21006E-06   -0.12119E-08  3520   0.123E-04    0.949E-05
DAV:  11    -0.133094262129E+04   -0.11877E-06   -0.63143E-09  3264   0.986E-05    0.662E-05
DAV:  12    -0.133094262143E+04   -0.13640E-06   -0.88405E-09  3456   0.110E-04    0.576E-05
DAV:  13    -0.133094262148E+04   -0.53275E-07   -0.34862E-09  3168   0.850E-05    0.439E-05
DAV:  14    -0.133094262154E+04   -0.56170E-07   -0.29146E-09  3168   0.648E-05    0.385E-05
DAV:  15    -0.133094262159E+04   -0.56345E-07   -0.27625E-09  3168   0.577E-05    0.323E-05
DAV:  16    -0.133094262160E+04   -0.10230E-07   -0.86130E-10  3136   0.362E-05    0.207E-05
DAV:  17    -0.133094262162E+04   -0.20198E-07   -0.76295E-10  3072   0.363E-05    0.221E-05
DAV:  18    -0.133094262163E+04   -0.10055E-07   -0.25438E-10  3072   0.233E-05    0.269E-05
DAV:  19    -0.133094262164E+04   -0.35652E-08    0.49891E-11  2976   0.157E-05
  25 F= -.13499955E+04 E0= -.13499955E+04  d E =0.199602E-03  mag=    -0.0000
       N       E                     dE             d eps       ncg     rms          rms(c)
DAV:   1    -0.133094263691E+04   -0.15279E-04   -0.76834E-02  5216   0.166E-01    0.106E-01
DAV:   2    -0.133094258486E+04    0.52049E-04   -0.10001E-03  5440   0.202E-02    0.648E-02
DAV:   3    -0.133094255202E+04    0.32844E-04   -0.55352E-04  5472   0.144E-02    0.207E-02
DAV:   4    -0.133094254476E+04    0.72583E-05   -0.58477E-05  5280   0.466E-03    0.137E-02
DAV:   5    -0.133094254308E+04    0.16792E-05   -0.23186E-05  5056   0.283E-03    0.299E-03
DAV:   6    -0.133094254332E+04   -0.23615E-06   -0.17962E-06  5216   0.976E-04    0.130E-03
DAV:   7    -0.133094254361E+04   -0.28957E-06   -0.35458E-07  4320   0.388E-04    0.792E-04
DAV:   8    -0.133094254384E+04   -0.23701E-06   -0.50415E-08  3616   0.188E-04    0.331E-04
DAV:   9    -0.133094254404E+04   -0.20172E-06   -0.22641E-08  3552   0.118E-04    0.140E-04
DAV:  10    -0.133094254419E+04   -0.14294E-06   -0.60739E-09  3200   0.862E-05    0.834E-05
DAV:  11    -0.133094254431E+04   -0.12619E-06   -0.52609E-09  3264   0.769E-05    0.572E-05
DAV:  12    -0.133094254444E+04   -0.12635E-06   -0.67496E-09  3296   0.991E-05    0.516E-05
DAV:  13    -0.133094254449E+04   -0.53551E-07   -0.45878E-09  3200   0.112E-04    0.337E-05
DAV:  14    -0.133094254454E+04   -0.49651E-07   -0.37799E-09  3104   0.927E-05    0.433E-05
DAV:  15    -0.133094254458E+04   -0.32276E-07   -0.17650E-09  3072   0.560E-05    0.298E-05
DAV:  16    -0.133094254460E+04   -0.20038E-07   -0.10344E-09  3072   0.390E-05    0.135E-05
DAV:  17    -0.133094254461E+04   -0.16720E-07   -0.57689E-10  3072   0.291E-05    0.221E-05
DAV:  18    -0.133094254462E+04   -0.67230E-08   -0.16823E-10  3072   0.186E-05
  26 F= -.13499959E+04 E0= -.13499959E+04  d E =-.365293E-03  mag=     0.0000
       N       E                     dE             d eps       ncg     rms          rms(c)
DAV:   1    -0.133094280443E+04   -0.25982E-03   -0.78935E-02  5024   0.141E-01    0.125E-01
DAV:   2    -0.133094261493E+04    0.18950E-03   -0.97308E-04  5248   0.181E-02    0.678E-02
DAV:   3    -0.133094258093E+04    0.34005E-04   -0.44311E-04  5504   0.109E-02    0.206E-02
DAV:   4    -0.133094257341E+04    0.75170E-05   -0.50547E-05  5504   0.409E-03    0.111E-02
DAV:   5    -0.133094257371E+04   -0.29951E-06   -0.10216E-05  5984   0.194E-03    0.193E-03
DAV:   6    -0.133094257401E+04   -0.29725E-06   -0.50847E-07  4704   0.548E-04    0.109E-03
DAV:   7    -0.133094257444E+04   -0.43459E-06   -0.12358E-07  4256   0.280E-04    0.401E-04
DAV:   8    -0.133094257486E+04   -0.42219E-06   -0.45606E-08  3744   0.167E-04    0.280E-04
DAV:   9    -0.133094257538E+04   -0.51163E-06   -0.17890E-08  3488   0.119E-04    0.143E-04
DAV:  10    -0.133094257595E+04   -0.57790E-06   -0.21723E-08  3680   0.109E-04    0.919E-05
DAV:  11    -0.133094257631E+04   -0.35236E-06   -0.11203E-08  3424   0.869E-05    0.772E-05
DAV:  12    -0.133094257655E+04   -0.24910E-06   -0.84462E-09  3328   0.921E-05    0.426E-05
DAV:  13    -0.133094257669E+04   -0.13386E-06   -0.57184E-09  3200   0.773E-05    0.333E-05
DAV:  14    -0.133094257675E+04   -0.57509E-07   -0.26243E-09  3072   0.524E-05    0.244E-05
DAV:  15    -0.133094257679E+04   -0.45518E-07   -0.21150E-09  3072   0.466E-05    0.142E-05
DAV:  16    -0.133094257680E+04   -0.93423E-08   -0.88163E-10  3136   0.319E-05
  27 F= -.13499957E+04 E0= -.13499957E+04  d E =0.140428E-03  mag=    -0.0000
       N       E                     dE             d eps       ncg     rms          rms(c)
DAV:   1    -0.133094261372E+04   -0.36930E-04   -0.81875E-02  4992   0.141E-01    0.137E-01
DAV:   2    -0.133094238335E+04    0.23037E-03   -0.13980E-03  5184   0.216E-02    0.739E-02
DAV:   3    -0.133094233763E+04    0.45727E-04   -0.62386E-04  5824   0.132E-02    0.251E-02
DAV:   4    -0.133094232692E+04    0.10708E-04   -0.65244E-05  5824   0.448E-03    0.149E-02
DAV:   5    -0.133094232619E+04    0.72738E-06   -0.16669E-05  6080   0.236E-03    0.254E-03
DAV:   6    -0.133094232638E+04   -0.18968E-06   -0.98542E-07  5088   0.751E-04    0.127E-03
DAV:   7    -0.133094232669E+04   -0.31036E-06   -0.22804E-07  4576   0.344E-04    0.524E-04
DAV:   8    -0.133094232704E+04   -0.34722E-06   -0.48491E-08  3920   0.203E-04    0.296E-04
DAV:   9    -0.133094232738E+04   -0.34139E-06   -0.19016E-08  3840   0.140E-04    0.161E-04
DAV:  10    -0.133094232774E+04   -0.36533E-06   -0.15118E-08  3744   0.112E-04    0.113E-04
DAV:  11    -0.133094232802E+04   -0.27734E-06   -0.11734E-08  3696   0.884E-05    0.886E-05
DAV:  12    -0.133094232819E+04   -0.16522E-06   -0.47435E-09  3200   0.683E-05    0.472E-05
DAV:  13    -0.133094232837E+04   -0.18592E-06   -0.10289E-08  3664   0.688E-05    0.582E-05
DAV:  14    -0.133094232842E+04   -0.43132E-07   -0.10082E-09  3136   0.436E-05    0.429E-05
DAV:  15    -0.133094232850E+04   -0.85667E-07   -0.32376E-09  3200   0.592E-05    0.392E-05
DAV:  16    -0.133094232852E+04   -0.17753E-07   -0.82046E-10  3136   0.461E-05    0.297E-05
DAV:  17    -0.133094232853E+04   -0.14072E-07   -0.44067E-10  3072   0.313E-05    0.121E-05
DAV:  18    -0.133094232856E+04   -0.22148E-07   -0.27470E-10  3072   0.268E-05    0.134E-05
DAV:  19    -0.133094232857E+04   -0.93860E-08   -0.78442E-11  3072   0.177E-05
  28 F= -.13499955E+04 E0= -.13499955E+04  d E =0.282562E-03  mag=    -0.0000
       N       E                     dE             d eps       ncg     rms          rms(c)
DAV:   1    -0.133094276363E+04   -0.43508E-03   -0.75545E-02  5184   0.160E-01    0.101E-01
DAV:   2    -0.133094275700E+04    0.66296E-05   -0.91659E-04  5856   0.172E-02    0.609E-02
DAV:   3    -0.133094273109E+04    0.25911E-04   -0.18187E-04  5632   0.845E-03    0.108E-02
DAV:   4    -0.133094273140E+04   -0.30592E-06   -0.24948E-05  5536   0.255E-03    0.620E-03
DAV:   5    -0.133094273079E+04    0.60551E-06   -0.73297E-06  5120   0.180E-03    0.206E-03
DAV:   6    -0.133094273093E+04   -0.14280E-06   -0.85380E-07  5312   0.807E-04    0.112E-03
DAV:   7    -0.133094273103E+04   -0.93773E-07   -0.11549E-07  4256   0.308E-04    0.478E-04
DAV:   8    -0.133094273114E+04   -0.11201E-06   -0.38248E-08  4064   0.212E-04    0.202E-04
DAV:   9    -0.133094273127E+04   -0.12643E-06   -0.13368E-08  3488   0.132E-04    0.133E-04
DAV:  10    -0.133094273136E+04   -0.97498E-07   -0.53759E-09  3232   0.982E-05    0.720E-05
DAV:  11    -0.133094273147E+04   -0.10832E-06   -0.76463E-09  3360   0.109E-04    0.511E-05
DAV:  12    -0.133094273154E+04   -0.72279E-07   -0.59165E-09  3168   0.103E-04    0.447E-05
DAV:  13    -0.133094273158E+04   -0.32203E-07   -0.40532E-09  3136   0.840E-05    0.246E-05
DAV:  14    -0.133094273160E+04   -0.19296E-07   -0.23495E-09  3072   0.563E-05    0.162E-05
DAV:  15    -0.133094273161E+04   -0.12602E-07   -0.11745E-09  3072   0.361E-05    0.130E-05
DAV:  16    -0.133094273162E+04   -0.85274E-08   -0.62760E-10  3088   0.275E-05
  29 F= -.13499959E+04 E0= -.13499959E+04  d E =-.450781E-03  mag=     0.0000
       N       E                     dE             d eps       ncg     rms          rms(c)
DAV:   1    -0.133094290095E+04   -0.16934E-03   -0.76697E-02  5184   0.167E-01    0.104E-01
DAV:   2    -0.133094281731E+04    0.83638E-04   -0.78721E-04  5376   0.201E-02    0.579E-02
DAV:   3    -0.133094279651E+04    0.20801E-04   -0.31262E-04  5680   0.108E-02    0.168E-02
DAV:   4    -0.133094279146E+04    0.50418E-05   -0.31406E-05  5584   0.352E-03    0.956E-03
DAV:   5    -0.133094279067E+04    0.79002E-06   -0.10397E-05  5728   0.213E-03    0.191E-03
DAV:   6    -0.133094279069E+04   -0.18859E-07   -0.69374E-07  5632   0.859E-04    0.104E-03
DAV:   7    -0.133094279071E+04   -0.13097E-07   -0.92987E-08  4544   0.298E-04    0.531E-04
DAV:   8    -0.133094279085E+04   -0.14319E-06   -0.32449E-08  4064   0.253E-04    0.251E-04
DAV:   9    -0.133094279103E+04   -0.18461E-06   -0.15890E-08  3584   0.165E-04    0.169E-04
DAV:  10    -0.133094279137E+04   -0.33504E-06   -0.25610E-08  4192   0.198E-04    0.126E-04
DAV:  11    -0.133094279157E+04   -0.20086E-06   -0.15099E-08  3680   0.145E-04    0.978E-05
DAV:  12    -0.133094279172E+04   -0.15264E-06   -0.64056E-09  3392   0.103E-04    0.526E-05
DAV:  13    -0.133094279184E+04   -0.11774E-06   -0.50278E-09  3264   0.842E-05    0.386E-05
DAV:  14    -0.133094279192E+04   -0.76776E-07   -0.35183E-09  3072   0.746E-05    0.260E-05
DAV:  15    -0.133094279198E+04   -0.64640E-07   -0.30283E-09  3072   0.617E-05    0.175E-05
DAV:  16    -0.133094279201E+04   -0.30210E-07   -0.13959E-09  3072   0.408E-05    0.150E-05
DAV:  17    -0.133094279203E+04   -0.22002E-07   -0.80684E-10  3072   0.332E-05    0.902E-06
DAV:  18    -0.133094279205E+04   -0.15294E-07   -0.47330E-10  3072   0.257E-05    0.131E-05
DAV:  19    -0.133094279205E+04   -0.35798E-08   -0.77716E-11  3072   0.185E-05
  30 F= -.13499961E+04 E0= -.13499961E+04  d E =-.204058E-03  mag=     0.0000
       N       E                     dE             d eps       ncg     rms          rms(c)
DAV:   1    -0.133094223835E+04    0.55370E-03   -0.74767E-02  5216   0.167E-01    0.959E-02
DAV:   2    -0.133094219792E+04    0.40432E-04   -0.58083E-04  5440   0.182E-02    0.548E-02
DAV:   3    -0.133094219137E+04    0.65429E-05   -0.24537E-04  5952   0.105E-02    0.157E-02
DAV:   4    -0.133094218724E+04    0.41307E-05   -0.26416E-05  5952   0.351E-03    0.878E-03
DAV:   5    -0.133094218664E+04    0.60395E-06   -0.13097E-05  5600   0.220E-03    0.196E-03
DAV:   6    -0.133094218668E+04   -0.37675E-07   -0.99404E-07  5536   0.880E-04    0.103E-03
DAV:   7    -0.133094218675E+04   -0.74811E-07   -0.95990E-08  4736   0.286E-04    0.477E-04
DAV:   8    -0.133094218686E+04   -0.10322E-06   -0.23644E-08  3616   0.171E-04    0.187E-04
DAV:   9    -0.133094218696E+04   -0.99477E-07   -0.65872E-09  3232   0.109E-04    0.112E-04
DAV:  10    -0.133094218706E+04   -0.10651E-06   -0.52002E-09  3360   0.876E-05    0.613E-05
DAV:  11    -0.133094218715E+04   -0.85507E-07   -0.25426E-09  3136   0.570E-05    0.513E-05
DAV:  12    -0.133094218724E+04   -0.87704E-07   -0.31455E-09  3200   0.625E-05    0.275E-05
DAV:  13    -0.133094218731E+04   -0.72352E-07   -0.31821E-09  3136   0.664E-05    0.351E-05
DAV:  14    -0.133094218733E+04   -0.24302E-07   -0.13415E-09  3136   0.493E-05    0.235E-05
DAV:  15    -0.133094218737E+04   -0.35681E-07   -0.15843E-09  3072   0.476E-05    0.301E-05
DAV:  16    -0.133094218738E+04   -0.92550E-08   -0.54481E-10  3072   0.320E-05
  31 F= -.13499952E+04 E0= -.13499952E+04  d E =0.892570E-03  mag=    -0.0000
       N       E                     dE             d eps       ncg     rms          rms(c)
DAV:   1    -0.133094283804E+04   -0.65067E-03   -0.77706E-02  5248   0.188E-01    0.113E-01
DAV:   2    -0.133094275740E+04    0.80637E-04   -0.11714E-03  5440   0.238E-02    0.656E-02
DAV:   3    -0.133094273600E+04    0.21402E-04   -0.52214E-04  5696   0.140E-02    0.232E-02
DAV:   4    -0.133094272647E+04    0.95343E-05   -0.61935E-05  5600   0.453E-03    0.133E-02
DAV:   5    -0.133094272534E+04    0.11222E-05   -0.20821E-05  5568   0.271E-03    0.227E-03
DAV:   6    -0.133094272560E+04   -0.26036E-06   -0.14143E-06  5728   0.107E-03    0.127E-03
DAV:   7    -0.133094272589E+04   -0.28702E-06   -0.16475E-07  4768   0.337E-04    0.801E-04
DAV:   8    -0.133094272642E+04   -0.52855E-06   -0.53556E-08  4064   0.252E-04    0.302E-04
DAV:   9    -0.133094272686E+04   -0.44015E-06   -0.27096E-08  3808   0.187E-04    0.208E-04
DAV:  10    -0.133094272735E+04   -0.49452E-06   -0.17036E-08  3536   0.141E-04    0.129E-04
DAV:  11    -0.133094272776E+04   -0.40782E-06   -0.12989E-08  3488   0.115E-04    0.850E-05
DAV:  12    -0.133094272812E+04   -0.35756E-06   -0.14816E-08  3600   0.115E-04    0.661E-05
DAV:  13    -0.133094272827E+04   -0.15348E-06   -0.52155E-09  3264   0.860E-05    0.479E-05
DAV:  14    -0.133094272842E+04   -0.14751E-06   -0.63447E-09  3360   0.941E-05    0.436E-05
DAV:  15    -0.133094272846E+04   -0.39479E-07   -0.26995E-09  3136   0.717E-05    0.375E-05
DAV:  16    -0.133094272849E+04   -0.25015E-07   -0.12886E-09  3072   0.475E-05    0.142E-05
DAV:  17    -0.133094272851E+04   -0.25568E-07   -0.10341E-09  3072   0.403E-05    0.286E-05
DAV:  18    -0.133094272852E+04   -0.67230E-08   -0.31701E-10  3120   0.259E-05
  32 F= -.13499959E+04 E0= -.13499959E+04  d E =-.692155E-03  mag=    -0.0000
       N       E                     dE             d eps       ncg     rms          rms(c)
DAV:   1    -0.133094278208E+04   -0.53572E-04   -0.75282E-02  4352   0.177E-01    0.961E-02
DAV:   2    -0.133094274311E+04    0.38973E-04   -0.69434E-04  4864   0.161E-02    0.569E-02
DAV:   3    -0.133094273487E+04    0.82446E-05   -0.33241E-04  5696   0.101E-02    0.168E-02
DAV:   4    -0.133094272919E+04    0.56735E-05   -0.32204E-05  5248   0.339E-03    0.108E-02
DAV:   5    -0.133094272876E+04    0.43529E-06   -0.15902E-05  4992   0.219E-03    0.196E-03
DAV:   6    -0.133094272928E+04   -0.51864E-06   -0.95983E-07  4992   0.693E-04    0.109E-03
DAV:   7    -0.133094272997E+04   -0.69468E-06   -0.20914E-07  4192   0.292E-04    0.766E-04
DAV:   8    -0.133094273069E+04   -0.71611E-06   -0.52674E-08  3680   0.159E-04    0.295E-04
DAV:   9    -0.133094273131E+04   -0.62815E-06   -0.35283E-08  3776   0.124E-04    0.197E-04
DAV:  10    -0.133094273198E+04   -0.66136E-06   -0.21732E-08  3680   0.103E-04    0.123E-04
DAV:  11    -0.133094273240E+04   -0.42017E-06   -0.14392E-08  3552   0.917E-05    0.728E-05
DAV:  12    -0.133094273275E+04   -0.34930E-06   -0.14291E-08  3616   0.106E-04    0.593E-05
DAV:  13    -0.133094273288E+04   -0.13510E-06   -0.48323E-09  3280   0.858E-05    0.480E-05
DAV:  14    -0.133094273301E+04   -0.13418E-06   -0.36583E-09  3232   0.624E-05    0.250E-05
DAV:  15    -0.133094273311E+04   -0.91080E-07   -0.28379E-09  3200   0.571E-05    0.263E-05
DAV:  16    -0.133094273313E+04   -0.21944E-07   -0.97112E-10  3136   0.382E-05    0.182E-05
DAV:  17    -0.133094273316E+04   -0.33906E-07   -0.72312E-10  3072   0.331E-05    0.162E-05
DAV:  18    -0.133094273317E+04   -0.11816E-07   -0.18046E-10  3072   0.216E-05    0.147E-05
DAV:  19    -0.133094273318E+04   -0.38708E-08    0.45032E-11  3008   0.156E-05
  33 F= -.13499960E+04 E0= -.13499960E+04  d E =-.672792E-04  mag=    -0.0000
       N       E                     dE             d eps       ncg     rms          rms(c)
DAV:   1    -0.133094200777E+04    0.72540E-03   -0.74271E-02  4448   0.177E-01    0.915E-02
DAV:   2    -0.133094197563E+04    0.32145E-04   -0.59871E-04  5088   0.154E-02    0.543E-02
DAV:   3    -0.133094196780E+04    0.78309E-05   -0.27091E-04  5440   0.955E-03    0.153E-02
DAV:   4    -0.133094196324E+04    0.45579E-05   -0.30824E-05  5184   0.326E-03    0.981E-03
DAV:   5    -0.133094196324E+04   -0.42201E-08   -0.14569E-05  4768   0.205E-03    0.180E-03
DAV:   6    -0.133094196379E+04   -0.54126E-06   -0.83174E-07  4800   0.659E-04    0.977E-04
DAV:   7    -0.133094196449E+04   -0.70340E-06   -0.12494E-07  4352   0.247E-04    0.510E-04
DAV:   8    -0.133094196531E+04   -0.82341E-06   -0.54201E-08  4256   0.155E-04    0.274E-04
DAV:   9    -0.133094196602E+04   -0.70517E-06   -0.29811E-08  4000   0.127E-04    0.148E-04
DAV:  10    -0.133094196667E+04   -0.65325E-06   -0.26297E-08  4160   0.991E-05    0.143E-04
DAV:  11    -0.133094196716E+04   -0.48509E-06   -0.17703E-08  3904   0.907E-05    0.878E-05
DAV:  12    -0.133094196742E+04   -0.25990E-06   -0.87410E-09  3584   0.762E-05    0.531E-05
DAV:  13    -0.133094196762E+04   -0.20227E-06   -0.74358E-09  3616   0.688E-05    0.505E-05
DAV:  14    -0.133094196772E+04   -0.10614E-06   -0.30362E-09  3072   0.535E-05    0.235E-05
DAV:  15    -0.133094196778E+04   -0.59285E-07   -0.22458E-09  3072   0.478E-05    0.152E-05
DAV:  16    -0.133094196781E+04   -0.26732E-07   -0.11283E-09  3072   0.433E-05    0.127E-05
DAV:  17    -0.133094196783E+04   -0.18219E-07   -0.52175E-10  3072   0.290E-05    0.901E-06
DAV:  18    -0.133094196784E+04   -0.10856E-07   -0.13285E-10  3072   0.188E-05    0.472E-06
DAV:  19    -0.133094196784E+04   -0.50204E-08    0.64743E-11  3072   0.126E-05
  34 F= -.13499952E+04 E0= -.13499952E+04  d E =0.781798E-03  mag=     0.0000
       N       E                     dE             d eps       ncg     rms          rms(c)
DAV:   1    -0.133094100033E+04    0.96751E-03   -0.28568E-01  4832   0.352E-01    0.136E-01
DAV:   2    -0.133094100384E+04   -0.35104E-05   -0.29584E-03  5376   0.359E-02    0.837E-02
DAV:   3    -0.133094090618E+04    0.97661E-04   -0.66140E-04  5696   0.158E-02    0.254E-02
DAV:   4    -0.133094090924E+04   -0.30636E-05   -0.89412E-05  5664   0.506E-03    0.128E-02
DAV:   5    -0.133094090831E+04    0.93240E-06   -0.13835E-05  5504   0.226E-03    0.369E-03
DAV:   6    -0.133094090878E+04   -0.47254E-06   -0.16111E-06  4736   0.825E-04    0.148E-03
DAV:   7    -0.133094090921E+04   -0.42810E-06   -0.25161E-07  4832   0.353E-04    0.633E-04
DAV:   8    -0.133094090962E+04   -0.40709E-06   -0.60964E-08  3808   0.204E-04    0.248E-04
DAV:   9    -0.133094090990E+04   -0.27767E-06   -0.16021E-08  3520   0.127E-04    0.140E-04
DAV:  10    -0.133094091013E+04   -0.23519E-06   -0.11128E-08  3680   0.102E-04    0.958E-05
DAV:  11    -0.133094091038E+04   -0.25037E-06   -0.10879E-08  3584   0.106E-04    0.577E-05
DAV:  12    -0.133094091053E+04   -0.14980E-06   -0.70670E-09  3456   0.918E-05    0.434E-05
DAV:  13    -0.133094091062E+04   -0.84779E-07   -0.32101E-09  3072   0.688E-05    0.275E-05
DAV:  14    -0.133094091068E+04   -0.65935E-07   -0.27373E-09  3072   0.552E-05    0.166E-05
DAV:  15    -0.133094091072E+04   -0.32611E-07   -0.14847E-09  3072   0.445E-05    0.130E-05
DAV:  16    -0.133094091073E+04   -0.15643E-07   -0.86494E-10  3072   0.364E-05    0.795E-06
DAV:  17    -0.133094091074E+04   -0.83237E-08   -0.46964E-10  3072   0.264E-05
  35 F= -.13499942E+04 E0= -.13499942E+04  d E =0.103362E-02  mag=     0.0000
       N       E                     dE             d eps       ncg     rms          rms(c)
DAV:   1    -0.133094075103E+04    0.15970E-03   -0.49713E-01  4992   0.469E-01    0.144E-01
DAV:   2    -0.133094070139E+04    0.49642E-04   -0.30739E-03  5280   0.367E-02    0.890E-02
DAV:   3    -0.133094057840E+04    0.12298E-03   -0.71891E-04  5568   0.165E-02    0.165E-02
DAV:   4    -0.133094058544E+04   -0.70387E-05   -0.83736E-05  5920   0.432E-03    0.903E-03
DAV:   5    -0.133094058518E+04    0.26569E-06   -0.10107E-05  5408   0.185E-03    0.341E-03
DAV:   6    -0.133094058562E+04   -0.44410E-06   -0.12534E-06  4864   0.728E-04    0.165E-03
DAV:   7    -0.133094058636E+04   -0.73970E-06   -0.36880E-07  4512   0.425E-04    0.474E-04
DAV:   8    -0.133094058680E+04   -0.43574E-06   -0.58351E-08  4192   0.212E-04    0.311E-04
DAV:   9    -0.133094058747E+04   -0.67143E-06   -0.25599E-08  3968   0.145E-04    0.189E-04
DAV:  10    -0.133094058804E+04   -0.56968E-06   -0.21051E-08  3776   0.132E-04    0.105E-04
DAV:  11    -0.133094058841E+04   -0.36748E-06   -0.11966E-08  3552   0.965E-05    0.907E-05
DAV:  12    -0.133094058862E+04   -0.21422E-06   -0.44256E-09  3232   0.627E-05    0.667E-05
DAV:  13    -0.133094058880E+04   -0.18459E-06   -0.49441E-09  3296   0.544E-05    0.312E-05
DAV:  14    -0.133094058894E+04   -0.13382E-06   -0.38964E-09  3200   0.523E-05    0.241E-05
DAV:  15    -0.133094058900E+04   -0.59896E-07   -0.24215E-09  3072   0.494E-05    0.164E-05
DAV:  16    -0.133094058903E+04   -0.27183E-07   -0.15150E-09  3072   0.450E-05    0.108E-05
DAV:  17    -0.133094058904E+04   -0.16924E-07   -0.85992E-10  3072   0.309E-05    0.932E-06
DAV:  18    -0.133094058905E+04   -0.37544E-08   -0.29740E-10  3120   0.198E-05
  36 F= -.13499938E+04 E0= -.13499938E+04  d E =0.342403E-03  mag=     0.0000
       N       E                     dE             d eps       ncg     rms          rms(c)
DAV:   1    -0.133094109857E+04   -0.50953E-03   -0.50031E-01  4992   0.463E-01    0.143E-01
DAV:   2    -0.133094101948E+04    0.79089E-04   -0.28018E-03  5312   0.359E-02    0.893E-02
DAV:   3    -0.133094089340E+04    0.12608E-03   -0.75195E-04  5472   0.165E-02    0.127E-02
DAV:   4    -0.133094089993E+04   -0.65326E-05   -0.77330E-05  5536   0.401E-03    0.768E-03
DAV:   5    -0.133094089987E+04    0.66197E-07   -0.60966E-06  5984   0.164E-03    0.318E-03
DAV:   6    -0.133094090020E+04   -0.33330E-06   -0.10739E-06  4960   0.811E-04    0.113E-03
DAV:   7    -0.133094090070E+04   -0.49919E-06   -0.26078E-07  4736   0.342E-04    0.427E-04
DAV:   8    -0.133094090109E+04   -0.39666E-06   -0.27213E-08  3712   0.157E-04    0.269E-04
DAV:   9    -0.133094090170E+04   -0.60553E-06   -0.23725E-08  4032   0.134E-04    0.135E-04
DAV:  10    -0.133094090224E+04   -0.54381E-06   -0.20213E-08  3776   0.123E-04    0.887E-05
DAV:  11    -0.133094090255E+04   -0.30587E-06   -0.89185E-09  3424   0.106E-04    0.635E-05
DAV:  12    -0.133094090283E+04   -0.27684E-06   -0.11469E-08  3744   0.123E-04    0.441E-05
DAV:  13    -0.133094090298E+04   -0.15463E-06   -0.61097E-09  3264   0.101E-04    0.331E-05
DAV:  14    -0.133094090307E+04   -0.87413E-07   -0.32687E-09  3072   0.710E-05    0.194E-05
DAV:  15    -0.133094090313E+04   -0.59707E-07   -0.28879E-09  3072   0.638E-05    0.149E-05
DAV:  16    -0.133094090315E+04   -0.18961E-07   -0.14329E-09  3136   0.483E-05    0.108E-05
DAV:  17    -0.133094090316E+04   -0.12180E-07   -0.61275E-10  3072   0.299E-05    0.789E-06
DAV:  18    -0.133094090316E+04   -0.25902E-08   -0.10244E-10  3136   0.175E-05
  37 F= -.13499938E+04 E0= -.13499938E+04  d E =0.197305E-04  mag=     0.0000
       N       E                     dE             d eps       ncg     rms          rms(c)
DAV:   1    -0.133094043579E+04    0.46737E-03   -0.49904E-01  4896   0.464E-01    0.136E-01
DAV:   2    -0.133094055787E+04   -0.12208E-03   -0.41562E-03  5312   0.388E-02    0.955E-02
DAV:   3    -0.133094040412E+04    0.15375E-03   -0.61358E-04  5664   0.161E-02    0.227E-02
DAV:   4    -0.133094042035E+04   -0.16231E-04   -0.16987E-04  6208   0.474E-03    0.841E-03
DAV:   5    -0.133094041988E+04    0.46354E-06   -0.97395E-06  5216   0.187E-03    0.450E-03
DAV:   6    -0.133094042092E+04   -0.10344E-05   -0.13468E-06  5792   0.859E-04    0.133E-03
DAV:   7    -0.133094042186E+04   -0.94094E-06   -0.23033E-07  4640   0.478E-04    0.480E-04
DAV:   8    -0.133094042290E+04   -0.10399E-05   -0.11183E-07  4640   0.265E-04    0.355E-04
DAV:   9    -0.133094042357E+04   -0.66977E-06   -0.22070E-08  3840   0.152E-04    0.220E-04
DAV:  10    -0.133094042484E+04   -0.12749E-05   -0.66113E-08  4224   0.196E-04    0.190E-04
DAV:  11    -0.133094042520E+04   -0.35534E-06   -0.11487E-08  3712   0.118E-04    0.124E-04
DAV:  12    -0.133094042563E+04   -0.43206E-06   -0.14024E-08  3744   0.109E-04    0.793E-05
DAV:  13    -0.133094042588E+04   -0.24520E-06   -0.52104E-09  3360   0.657E-05    0.605E-05
DAV:  14    -0.133094042610E+04   -0.22069E-06   -0.57512E-09  3328   0.650E-05    0.273E-05
DAV:  15    -0.133094042621E+04   -0.10840E-06   -0.23656E-09  3072   0.533E-05    0.281E-05
DAV:  16    -0.133094042628E+04   -0.78173E-07   -0.19538E-09  3072   0.467E-05    0.191E-05
DAV:  17    -0.133094042632E+04   -0.41095E-07   -0.12648E-09  3072   0.502E-05    0.122E-05
DAV:  18    -0.133094042634E+04   -0.14508E-07   -0.69601E-10  3072   0.381E-05    0.150E-05
DAV:  19    -0.133094042634E+04   -0.49622E-08   -0.14743E-10  3072   0.213E-05
  38 F= -.13499937E+04 E0= -.13499937E+04  d E =0.107779E-03  mag=     0.0000
       N       E                     dE             d eps       ncg     rms          rms(c)
DAV:   1    -0.133094105201E+04   -0.62567E-03   -0.49420E-01  4832   0.455E-01    0.144E-01
DAV:   2    -0.133094100568E+04    0.46324E-04   -0.31011E-03  5248   0.358E-02    0.886E-02
DAV:   3    -0.133094089048E+04    0.11520E-03   -0.71223E-04  5536   0.164E-02    0.183E-02
DAV:   4    -0.133094089970E+04   -0.92128E-05   -0.11026E-04  5888   0.450E-03    0.982E-03
DAV:   5    -0.133094089898E+04    0.71739E-06   -0.14228E-05  5440   0.217E-03    0.358E-03
DAV:   6    -0.133094089949E+04   -0.51165E-06   -0.15523E-06  5536   0.829E-04    0.177E-03
DAV:   7    -0.133094090020E+04   -0.71235E-06   -0.32167E-07  4288   0.478E-04    0.494E-04
DAV:   8    -0.133094090070E+04   -0.50198E-06   -0.11267E-07  4832   0.257E-04    0.348E-04
DAV:   9    -0.133094090118E+04   -0.47887E-06   -0.15159E-08  3616   0.134E-04    0.211E-04
DAV:  10    -0.133094090188E+04   -0.69746E-06   -0.36433E-08  4128   0.188E-04    0.125E-04
DAV:  11    -0.133094090216E+04   -0.27708E-06   -0.14131E-08  3712   0.132E-04    0.986E-05
DAV:  12    -0.133094090236E+04   -0.20300E-06   -0.55590E-09  3264   0.918E-05    0.688E-05
DAV:  13    -0.133094090253E+04   -0.16725E-06   -0.64188E-09  3456   0.770E-05    0.359E-05
DAV:  14    -0.133094090261E+04   -0.86802E-07   -0.35586E-09  3200   0.715E-05    0.276E-05
DAV:  15    -0.133094090266E+04   -0.49302E-07   -0.21228E-09  3072   0.543E-05    0.202E-05
DAV:  16    -0.133094090270E+04   -0.38301E-07   -0.16218E-09  3072   0.429E-05    0.125E-05
DAV:  17    -0.133094090272E+04   -0.18947E-07   -0.97314E-10  3072   0.351E-05    0.128E-05
DAV:  18    -0.133094090273E+04   -0.71159E-08   -0.38041E-10  3072   0.230E-05
  39 F= -.13499942E+04 E0= -.13499942E+04  d E =-.479837E-03  mag=    -0.0000
       N       E                     dE             d eps       ncg     rms          rms(c)
DAV:   1    -0.133094104322E+04   -0.14050E-03   -0.49426E-01  4928   0.445E-01    0.143E-01
DAV:   2    -0.133094100957E+04    0.33649E-04   -0.31390E-03  5408   0.364E-02    0.892E-02
DAV:   3    -0.133094088826E+04    0.12132E-03   -0.70100E-04  5536   0.161E-02    0.187E-02
DAV:   4    -0.133094089593E+04   -0.76687E-05   -0.91970E-05  5728   0.436E-03    0.911E-03
DAV:   5    -0.133094089541E+04    0.52233E-06   -0.11779E-05  5408   0.216E-03    0.328E-03
DAV:   6    -0.133094089580E+04   -0.39695E-06   -0.14724E-06  5152   0.100E-03    0.160E-03
DAV:   7    -0.133094089631E+04   -0.50386E-06   -0.33028E-07  4704   0.461E-04    0.498E-04
DAV:   8    -0.133094089668E+04   -0.37029E-06   -0.52137E-08  4192   0.208E-04    0.310E-04
DAV:   9    -0.133094089719E+04   -0.50936E-06   -0.19039E-08  3712   0.132E-04    0.186E-04
DAV:  10    -0.133094089774E+04   -0.55807E-06   -0.22814E-08  3936   0.121E-04    0.969E-05
DAV:  11    -0.133094089810E+04   -0.36079E-06   -0.11105E-08  3552   0.853E-05    0.751E-05
DAV:  12    -0.133094089836E+04   -0.25069E-06   -0.63652E-09  3392   0.674E-05    0.553E-05
DAV:  13    -0.133094089858E+04   -0.22975E-06   -0.80210E-09  3584   0.669E-05    0.313E-05
DAV:  14    -0.133094089869E+04   -0.10371E-06   -0.35540E-09  3072   0.553E-05    0.229E-05
DAV:  15    -0.133094089874E+04   -0.50306E-07   -0.23405E-09  3072   0.515E-05    0.170E-05
DAV:  16    -0.133094089876E+04   -0.19121E-07   -0.13863E-09  3072   0.455E-05    0.119E-05
DAV:  17    -0.133094089877E+04   -0.12384E-07   -0.71062E-10  3072   0.296E-05    0.793E-06
DAV:  18    -0.133094089877E+04   -0.36962E-08   -0.16794E-10  3072   0.187E-05
  40 F= -.13499938E+04 E0= -.13499938E+04  d E =0.343661E-03  mag=    -0.0000
       N       E                     dE             d eps       ncg     rms          rms(c)
DAV:   1    -0.133094082790E+04    0.70866E-04   -0.49076E-01  5056   0.468E-01    0.131E-01
DAV:   2    -0.133094108641E+04   -0.25851E-03   -0.51148E-03  5344   0.414E-02    0.922E-02
DAV:   3    -0.133094095188E+04    0.13454E-03   -0.51841E-04  5632   0.143E-02    0.317E-02
DAV:   4    -0.133094095998E+04   -0.81021E-05   -0.15255E-04  5920   0.587E-03    0.109E-02
DAV:   5    -0.133094095879E+04    0.11843E-05   -0.21373E-05  5376   0.270E-03    0.452E-03
DAV:   6    -0.133094095967E+04   -0.87952E-06   -0.21785E-06  4928   0.860E-04    0.188E-03
DAV:   7    -0.133094096066E+04   -0.98736E-06   -0.49559E-07  4480   0.513E-04    0.703E-04
DAV:   8    -0.133094096152E+04   -0.85890E-06   -0.13274E-07  4544   0.256E-04    0.309E-04
DAV:   9    -0.133094096217E+04   -0.65060E-06   -0.19932E-08  3680   0.112E-04    0.201E-04
DAV:  10    -0.133094096324E+04   -0.10704E-05   -0.44551E-08  4128   0.139E-04    0.120E-04
DAV:  11    -0.133094096380E+04   -0.55788E-06   -0.15062E-08  3712   0.939E-05    0.778E-05
DAV:  12    -0.133094096427E+04   -0.47605E-06   -0.13633E-08  3584   0.832E-05    0.636E-05
DAV:  13    -0.133094096453E+04   -0.25939E-06   -0.71628E-09  3392   0.735E-05    0.435E-05
DAV:  14    -0.133094096470E+04   -0.16889E-06   -0.49009E-09  3168   0.654E-05    0.299E-05
DAV:  15    -0.133094096478E+04   -0.75015E-07   -0.26009E-09  3072   0.505E-05    0.254E-05
DAV:  16    -0.133094096484E+04   -0.60871E-07   -0.20371E-09  3072   0.462E-05    0.149E-05
DAV:  17    -0.133094096486E+04   -0.24593E-07   -0.11101E-09  3136   0.389E-05    0.168E-05
DAV:  18    -0.133094096488E+04   -0.13504E-07   -0.44931E-10  3072   0.240E-05    0.101E-05
DAV:  19    -0.133094096489E+04   -0.81927E-08   -0.14051E-10  3072   0.195E-05
  41 F= -.13499943E+04 E0= -.13499943E+04  d E =-.423101E-03  mag=    -0.0000
       N       E                     dE             d eps       ncg     rms          rms(c)
DAV:   1    -0.133094077728E+04    0.18759E-03   -0.48211E-01  5056   0.425E-01    0.135E-01
DAV:   2    -0.133094083641E+04   -0.59131E-04   -0.33596E-03  5536   0.360E-02    0.837E-02
DAV:   3    -0.133094074758E+04    0.88838E-04   -0.54613E-04  5696   0.137E-02    0.228E-02
DAV:   4    -0.133094075206E+04   -0.44830E-05   -0.83054E-05  6080   0.424E-03    0.101E-02
DAV:   5    -0.133094075220E+04   -0.14322E-06   -0.14931E-05  5616   0.241E-03    0.348E-03
DAV:   6    -0.133094075364E+04   -0.14417E-05   -0.14487E-06  4896   0.777E-04    0.162E-03
DAV:   7    -0.133094075547E+04   -0.18280E-05   -0.34454E-07  4320   0.446E-04    0.517E-04
DAV:   8    -0.133094075673E+04   -0.12532E-05   -0.13801E-07  4576   0.250E-04    0.348E-04
DAV:   9    -0.133094075814E+04   -0.14159E-05   -0.59623E-08  4256   0.186E-04    0.204E-04
DAV:  10    -0.133094075936E+04   -0.12153E-05   -0.59821E-08  4320   0.165E-04    0.130E-04
DAV:  11    -0.133094076006E+04   -0.70165E-06   -0.24224E-08  4032   0.106E-04    0.859E-05
DAV:  12    -0.133094076054E+04   -0.47935E-06   -0.13578E-08  3584   0.848E-05    0.544E-05
DAV:  13    -0.133094076082E+04   -0.28287E-06   -0.80489E-09  3456   0.732E-05    0.357E-05
DAV:  14    -0.133094076095E+04   -0.12449E-06   -0.29790E-09  3136   0.688E-05    0.252E-05
DAV:  15    -0.133094076105E+04   -0.10886E-06   -0.32955E-09  3136   0.640E-05    0.167E-05
DAV:  16    -0.133094076112E+04   -0.63126E-07   -0.17615E-09  3072   0.496E-05    0.115E-05
DAV:  17    -0.133094076114E+04   -0.26019E-07   -0.97495E-10  3104   0.409E-05    0.833E-06
DAV:  18    -0.133094076115E+04   -0.11380E-07   -0.37950E-10  3104   0.258E-05    0.805E-06
DAV:  19    -0.133094076116E+04   -0.25466E-08   -0.34403E-11  3072   0.140E-05
  42 F= -.13499940E+04 E0= -.13499940E+04  d E =0.240265E-03  mag=     0.0000
       N       E                     dE             d eps       ncg     rms          rms(c)
DAV:   1    -0.133094094087E+04   -0.17971E-03   -0.48893E-01  5056   0.436E-01    0.142E-01
DAV:   2    -0.133094097657E+04   -0.35701E-04   -0.34475E-03  5408   0.377E-02    0.891E-02
DAV:   3    -0.133094086020E+04    0.11637E-03   -0.59141E-04  5616   0.155E-02    0.216E-02
DAV:   4    -0.133094086793E+04   -0.77281E-05   -0.99654E-05  6176   0.458E-03    0.968E-03
DAV:   5    -0.133094086679E+04    0.11360E-05   -0.11813E-05  5728   0.228E-03    0.385E-03
DAV:   6    -0.133094086778E+04   -0.98607E-06   -0.16532E-06  5632   0.970E-04    0.173E-03
DAV:   7    -0.133094086917E+04   -0.13920E-05   -0.35570E-07  4736   0.501E-04    0.631E-04
DAV:   8    -0.133094087054E+04   -0.13666E-05   -0.11682E-07  4592   0.245E-04    0.397E-04
DAV:   9    -0.133094087172E+04   -0.11843E-05   -0.32904E-08  4112   0.173E-04    0.259E-04
DAV:  10    -0.133094087346E+04   -0.17400E-05   -0.59794E-08  4160   0.166E-04    0.166E-04
DAV:  11    -0.133094087462E+04   -0.11538E-05   -0.38617E-08  4160   0.144E-04    0.113E-04
DAV:  12    -0.133094087537E+04   -0.75455E-06   -0.18211E-08  3744   0.114E-04    0.807E-05
DAV:  13    -0.133094087590E+04   -0.53165E-06   -0.13307E-08  3632   0.108E-04    0.473E-05
DAV:  14    -0.133094087612E+04   -0.21402E-06   -0.39984E-09  3200   0.761E-05    0.325E-05
DAV:  15    -0.133094087626E+04   -0.14799E-06   -0.26682E-09  3072   0.583E-05    0.191E-05
DAV:  16    -0.133094087634E+04   -0.76718E-07   -0.21619E-09  3072   0.612E-05    0.153E-05
DAV:  17    -0.133094087636E+04   -0.20678E-07   -0.12268E-09  3136   0.514E-05    0.106E-05
DAV:  18    -0.133094087638E+04   -0.15221E-07   -0.61291E-10  3072   0.311E-05    0.865E-06
DAV:  19    -0.133094087638E+04   -0.34343E-08   -0.15138E-10  3072   0.169E-05
  43 F= -.13499938E+04 E0= -.13499938E+04  d E =0.248232E-03  mag=    -0.0000
