       N       E                     dE             d eps       ncg     rms          rms(c)
DAV:   1    -0.137785024014E+04   -0.13779E+04   -0.13201E+00  6272   0.975E-01    0.941E-01
DAV:   2    -0.137957600064E+04   -0.17258E+01   -0.11762E+00  6176   0.950E-01    0.408E-01
DAV:   3    -0.137958557027E+04   -0.95696E-02   -0.42398E-02  6720   0.228E-01    0.275E-01
DAV:   4    -0.137958562494E+04   -0.54671E-04   -0.21034E-03  5600   0.567E-02    0.222E-01
DAV:   5    -0.137958563225E+04   -0.73059E-05   -0.18932E-04  6592   0.177E-02    0.187E-01
DAV:   6    -0.137958564402E+04   -0.11771E-04   -0.22016E-05  6656   0.698E-03    0.161E-01
DAV:   7    -0.137958565038E+04   -0.63627E-05   -0.23869E-05  6528   0.833E-03    0.128E-01
DAV:   8    -0.137958565510E+04   -0.47160E-05   -0.17299E-05  6208   0.659E-03    0.104E-01
DAV:   9    -0.137958565884E+04   -0.37399E-05   -0.39609E-06  4000   0.325E-03    0.903E-02
DAV:  10    -0.137958566336E+04   -0.45245E-05   -0.24044E-05  6368   0.789E-03    0.543E-02
DAV:  11    -0.137958566719E+04   -0.38311E-05   -0.30524E-05  6688   0.903E-03    0.179E-02
DAV:  12    -0.137958566822E+04   -0.10220E-05   -0.34873E-06  3872   0.276E-03    0.110E-02
DAV:  13    -0.137958566844E+04   -0.22216E-06   -0.11516E-06  2944   0.167E-03
   1 F= -.13988434E+04 E0= -.13988434E+04  d E =-.694470E-26  mag=    -0.0000
