 vasp.5.4.4.18Apr17-6-g9f103f2a35 (build Oct 18 2017 12:32:39) complex          
  
 executed on             LinuxIFC date 2021.10.28  07:47:48
 running on   48 total cores
 distrk:  each k-point on   48 cores,    1 groups
 distr:  one band on NCORES_PER_BAND=   6 cores,    8 groups


--------------------------------------------------------------------------------------------------------


 INCAR:
 POTCAR:    PAW_PBE Zr_sv 04Jan2005               
 POTCAR:    PAW_PBE O 08Apr2002                   
 POTCAR:    PAW_PBE H 15Jun2001                   
 POTCAR:    PAW_PBE C 08Apr2002                   
 POTCAR:    PAW_PBE Zr_sv 04Jan2005               
   VRHFIN =Zr: 4s4p5s4d                                                         
   LEXCH  = PE                                                                  
   EATOM  =  1284.2219 eV,   94.3876 Ry                                         
                                                                                
   TITEL  = PAW_PBE Zr_sv 04Jan2005                                             
   LULTRA =        F    use ultrasoft PP ?                                      
   IUNSCR =        1    unscreen: 0-lin 1-nonlin 2-no                           
   RPACOR =    2.200    partial core radius                                     
   POMASS =   91.224; ZVAL   =   12.000    mass and valenz                      
   RCORE  =    2.500    outmost cutoff radius                                   
   RWIGS  =    3.070; RWIGS  =    1.625    wigner-seitz radius (au A)           
   ENMAX  =  229.898; ENMIN  =  172.424 eV                                      
   ICORE  =        3    local potential                                         
   LCOR   =        T    correct aug charges                                     
   LPAW   =        T    paw PP                                                  
   EAUG   =  461.257                                                            
   DEXC   =    0.000                                                            
   RMAX   =    2.561    core radius for proj-oper                               
   RAUG   =    1.300    factor for augmentation sphere                          
   RDEP   =    2.597    radius for radial grids                                 
   RDEPT  =    2.007    core radius for aug-charge                              
                                                                                
   Atomic configuration                                                         
   11 entries                                                                   
     n  l   j            E        occ.                                          
     1  0  0.50    -17820.0161   2.0000                                         
     2  0  0.50     -2467.0882   2.0000                                         
     2  1  1.50     -2199.6095   6.0000                                         
     3  0  0.50      -402.4863   2.0000                                         
     3  1  1.50      -315.3675   6.0000                                         
     3  2  2.50      -172.4472  10.0000                                         
     4  0  0.50       -52.4146   2.0000                                         
     5  0  0.50        -3.8421   1.0000                                         
     4  1  1.50       -30.5054   6.0000                                         
     4  2  2.50        -2.3341   3.0000                                         
     4  3  2.50        -1.3606   0.0000                                         
   Description                                                                  
     l       E           TYP  RCUT    TYP  RCUT                                 
     0    -52.4145962     23  2.200                                             
     0     -3.8421270     23  2.500                                             
     1    -30.5053914     23  2.200                                             
     1     20.4087390     23  2.200                                             
     2     -2.3340816     23  2.500                                             
     2     -0.6120942     23  2.500                                             
     3     -4.0817478     23  2.500                                             
  local pseudopotential read in
  partial core-charges read in
  partial kinetic energy density read in
  atomic valenz-charges read in
  non local Contribution for L=           0  read in
    real space projection operators read in
  non local Contribution for L=           0  read in
    real space projection operators read in
  non local Contribution for L=           1  read in
    real space projection operators read in
  non local Contribution for L=           1  read in
    real space projection operators read in
  non local Contribution for L=           2  read in
    real space projection operators read in
  non local Contribution for L=           2  read in
    real space projection operators read in
    PAW grid and wavefunctions read in
 
   number of l-projection  operators is LMAX  =           6
   number of lm-projection operators is LMMAX =          18
 
 POTCAR:    PAW_PBE O 08Apr2002                   
   VRHFIN =O: s2p4                                                              
   LEXCH  = PE                                                                  
   EATOM  =   432.3788 eV,   31.7789 Ry                                         
                                                                                
   TITEL  = PAW_PBE O 08Apr2002                                                 
   LULTRA =        F    use ultrasoft PP ?                                      
   IUNSCR =        1    unscreen: 0-lin 1-nonlin 2-no                           
   RPACOR =    1.200    partial core radius                                     
   POMASS =   16.000; ZVAL   =    6.000    mass and valenz                      
   RCORE  =    1.520    outmost cutoff radius                                   
   RWIGS  =    1.550; RWIGS  =    0.820    wigner-seitz radius (au A)           
   ENMAX  =  400.000; ENMIN  =  300.000 eV                                      
   ICORE  =        2    local potential                                         
   LCOR   =        T    correct aug charges                                     
   LPAW   =        T    paw PP                                                  
   EAUG   =  605.392                                                            
   DEXC   =    0.000                                                            
   RMAX   =    1.553    core radius for proj-oper                               
   RAUG   =    1.300    factor for augmentation sphere                          
   RDEP   =    1.550    radius for radial grids                                 
   RDEPT  =    1.329    core radius for aug-charge                              
                                                                                
   Atomic configuration                                                         
    4 entries                                                                   
     n  l   j            E        occ.                                          
     1  0  0.50      -514.6923   2.0000                                         
     2  0  0.50       -23.9615   2.0000                                         
     2  1  0.50        -9.0305   4.0000                                         
     3  2  1.50        -9.5241   0.0000                                         
   Description                                                                  
     l       E           TYP  RCUT    TYP  RCUT                                 
     0    -23.9615318     23  1.200                                             
     0     -9.5240782     23  1.200                                             
     1     -9.0304911     23  1.520                                             
     1      8.1634956     23  1.520                                             
     2     -9.5240782      7  1.500                                             
  local pseudopotential read in
  partial core-charges read in
  partial kinetic energy density read in
  kinetic energy density of atom read in
  atomic valenz-charges read in
  non local Contribution for L=           0  read in
    real space projection operators read in
  non local Contribution for L=           0  read in
    real space projection operators read in
  non local Contribution for L=           1  read in
    real space projection operators read in
  non local Contribution for L=           1  read in
    real space projection operators read in
    PAW grid and wavefunctions read in
 
   number of l-projection  operators is LMAX  =           4
   number of lm-projection operators is LMMAX =           8
 
 POTCAR:    PAW_PBE H 15Jun2001                   
   VRHFIN =H: ultrasoft test                                                    
   LEXCH  = PE                                                                  
   EATOM  =    12.4884 eV,    0.9179 Ry                                         
                                                                                
   TITEL  = PAW_PBE H 15Jun2001                                                 
   LULTRA =        F    use ultrasoft PP ?                                      
   IUNSCR =        0    unscreen: 0-lin 1-nonlin 2-no                           
   RPACOR =    0.000    partial core radius                                     
   POMASS =    1.000; ZVAL   =    1.000    mass and valenz                      
   RCORE  =    1.100    outmost cutoff radius                                   
   RWIGS  =    0.700; RWIGS  =    0.370    wigner-seitz radius (au A)           
   ENMAX  =  250.000; ENMIN  =  200.000 eV                                      
   RCLOC  =    0.701    cutoff for local pot                                    
   LCOR   =        T    correct aug charges                                     
   LPAW   =        T    paw PP                                                  
   EAUG   =  400.000                                                            
   RMAX   =    1.123    core radius for proj-oper                               
   RAUG   =    1.200    factor for augmentation sphere                          
   RDEP   =    1.112    radius for radial grids                                 
   RDEPT  =    0.926    core radius for aug-charge                              
                                                                                
   Atomic configuration                                                         
    2 entries                                                                   
     n  l   j            E        occ.                                          
     1  0  0.50        -6.4927   1.0000                                         
     2  1  0.50        -3.4015   0.0000                                         
   Description                                                                  
     l       E           TYP  RCUT    TYP  RCUT                                 
     0     -6.4927494     23  1.100                                             
     0      6.8029130     23  1.100                                             
     1     -4.0817478     23  1.100                                             
  local pseudopotential read in
  atomic valenz-charges read in
  non local Contribution for L=           0  read in
    real space projection operators read in
  non local Contribution for L=           0  read in
    real space projection operators read in
  non local Contribution for L=           1  read in
    real space projection operators read in
    PAW grid and wavefunctions read in
 
   number of l-projection  operators is LMAX  =           3
   number of lm-projection operators is LMMAX =           5
 
 POTCAR:    PAW_PBE C 08Apr2002                   
   VRHFIN =C: s2p2                                                              
   LEXCH  = PE                                                                  
   EATOM  =   147.1560 eV,   10.8157 Ry                                         
                                                                                
   TITEL  = PAW_PBE C 08Apr2002                                                 
   LULTRA =        F    use ultrasoft PP ?                                      
   IUNSCR =        1    unscreen: 0-lin 1-nonlin 2-no                           
   RPACOR =    1.200    partial core radius                                     
   POMASS =   12.011; ZVAL   =    4.000    mass and valenz                      
   RCORE  =    1.500    outmost cutoff radius                                   
   RWIGS  =    1.630; RWIGS  =    0.863    wigner-seitz radius (au A)           
   ENMAX  =  400.000; ENMIN  =  300.000 eV                                      
   ICORE  =        2    local potential                                         
   LCOR   =        T    correct aug charges                                     
   LPAW   =        T    paw PP                                                  
   EAUG   =  644.873                                                            
   DEXC   =    0.000                                                            
   RMAX   =    1.529    core radius for proj-oper                               
   RAUG   =    1.300    factor for augmentation sphere                          
   RDEP   =    1.501    radius for radial grids                                 
   RDEPT  =    1.300    core radius for aug-charge                              
                                                                                
   Atomic configuration                                                         
    4 entries                                                                   
     n  l   j            E        occ.                                          
     1  0  0.50      -273.3789   2.0000                                         
     2  0  0.50       -13.7508   2.0000                                         
     2  1  0.50        -5.2854   2.0000                                         
     3  2  1.50        -5.4423   0.0000                                         
   Description                                                                  
     l       E           TYP  RCUT    TYP  RCUT                                 
     0    -13.7508458     23  1.200                                             
     0     -8.2022199     23  1.200                                             
     1     -5.2854383     23  1.500                                             
     1     34.0145650     23  1.500                                             
     2     -5.4423304      7  1.500                                             
  local pseudopotential read in
  partial core-charges read in
  partial kinetic energy density read in
  atomic valenz-charges read in
  non local Contribution for L=           0  read in
    real space projection operators read in
  non local Contribution for L=           0  read in
    real space projection operators read in
  non local Contribution for L=           1  read in
    real space projection operators read in
  non local Contribution for L=           1  read in
    real space projection operators read in
    PAW grid and wavefunctions read in
 
   number of l-projection  operators is LMAX  =           4
   number of lm-projection operators is LMMAX =           8
 
 Optimization of the real space projectors (new method)

 maximal supplied QI-value         = 15.12
 optimisation between [QCUT,QGAM] = [ 11.34, 22.83] = [ 36.00,145.93] Ry 
 Optimized for a Real-space Cutoff    1.47 Angstroem

   l    n(q)    QCUT    max X(q) W(low)/X(q) W(high)/X(q)  e(spline) 
   0     10    11.338    12.107    0.38E-04    0.13E-04    0.27E-07
   0     10    11.338     9.948    0.69E-04    0.30E-04    0.38E-07
   1     10    11.338     3.563    0.26E-04    0.18E-04    0.40E-07
   1     10    11.338     4.524    0.25E-03    0.39E-04    0.44E-06
   2      9    11.338    87.261    0.26E-03    0.91E-05    0.26E-06
   2      9    11.338    70.950    0.25E-03    0.91E-05    0.25E-06
 Optimization of the real space projectors (new method)

 maximal supplied QI-value         = 24.76
 optimisation between [QCUT,QGAM] = [ 11.39, 22.77] = [ 36.31,145.25] Ry 
 Optimized for a Real-space Cutoff    1.00 Angstroem

   l    n(q)    QCUT    max X(q) W(low)/X(q) W(high)/X(q)  e(spline) 
   0      7    11.387    20.381    0.39E-03    0.13E-02    0.15E-06
   0      7    11.387    15.268    0.42E-03    0.14E-02    0.17E-06
   1      6    11.387     5.964    0.41E-03    0.11E-02    0.17E-06
   1      6    11.387     5.382    0.39E-03    0.87E-03    0.15E-06
 Optimization of the real space projectors (new method)

 maximal supplied QI-value         = 34.20
 optimisation between [QCUT,QGAM] = [ 11.29, 22.57] = [ 35.68,142.71] Ry 
 Optimized for a Real-space Cutoff    1.16 Angstroem

   l    n(q)    QCUT    max X(q) W(low)/X(q) W(high)/X(q)  e(spline) 
   0      8    11.287    19.460    0.40E-03    0.73E-03    0.16E-06
   0      8    11.287    12.209    0.38E-03    0.70E-03    0.15E-06
   1      7    11.287     4.655    0.22E-03    0.25E-04    0.22E-06
 Optimization of the real space projectors (new method)

 maximal supplied QI-value         = 25.13
 optimisation between [QCUT,QGAM] = [ 11.31, 22.87] = [ 35.82,146.48] Ry 
 Optimized for a Real-space Cutoff    1.00 Angstroem

   l    n(q)    QCUT    max X(q) W(low)/X(q) W(high)/X(q)  e(spline) 
   0      7    11.310   115.676    0.43E-03    0.13E-02    0.19E-06
   0      7    11.310    87.132    0.43E-03    0.13E-02    0.18E-06
   1      6    11.310     4.429    0.42E-03    0.74E-03    0.11E-06
   1      6    11.310     2.733    0.34E-03    0.55E-03    0.92E-07
  PAW_PBE Zr_sv 04Jan2005               :
 energy of atom  1       EATOM=-1284.2219
 kinetic energy error for atom=    0.0049 (will be added to EATOM!!)
  PAW_PBE O 08Apr2002                   :
 energy of atom  2       EATOM= -432.3788
 kinetic energy error for atom=    0.0224 (will be added to EATOM!!)
  PAW_PBE H 15Jun2001                   :
 energy of atom  3       EATOM=  -12.4884
 kinetic energy error for atom=    0.0020 (will be added to EATOM!!)
  PAW_PBE C 08Apr2002                   :
 energy of atom  4       EATOM= -147.1560
 kinetic energy error for atom=    0.0076 (will be added to EATOM!!)
 
 
 POSCAR: Zr   O    H    C                        
  positions in direct lattice
  velocities in cartesian coordinates
  No initial velocities read in
 exchange correlation table for  LEXCH =        8
   RHO(1)=    0.500       N(1)  =     2000
   RHO(2)=  100.500       N(2)  =     4000

 VTST: version 3.1, (03/28/14)

 CHAIN: initializing optimizer
 
 OPT: Using Conjugate-Gradient optimizer
 OPT: CG, Init
 OPT: CG, FDSTEP      0.005000
 OPT: CG, MAXMOVE      0.200000
 
 CHAIN: Read ICHAIN            2
 
 POSCAR: Zr   O    H    C                        
  positions in direct lattice
  velocities in cartesian coordinates
  No initial velocities read in
 CHAIN: Running the Dimer method

 Dimer: -----------------
 Dimer: Input Parameters
 Dimer:   Seed      0
 Dimer: RotMax      4
 Dimer:     dR      0.005000
 Dimer:  FNMax      1.000000
 Dimer:  FNMin      0.010000
 Dimer: -----------------
 


--------------------------------------------------------------------------------------------------------


 ion  position               nearest neighbor table
   1  0.088  0.321  0.038-  78 2.10  62 2.10  50 2.18  74 2.19  61 2.26  54 2.30  16 3.37   6 3.50
                            12 3.52  13 3.65
   2  0.338  0.821  0.038-  79 2.10  63 2.10  51 2.18  75 2.19  58 2.26  55 2.30  13 3.37   7 3.50
                             9 3.52  14 3.65
   3  0.588  0.321  0.038-  80 2.10  64 2.10  52 2.18  76 2.19  59 2.26  56 2.30  14 3.37   8 3.50
                            10 3.52  15 3.65
   4  0.838  0.821  0.038-  81 2.10  65 2.10  53 2.18  77 2.19  60 2.26  57 2.30  15 3.37   5 3.50
                            11 3.52  16 3.65
   5  0.070  0.834  0.049-  82 2.07  66 2.10  65 2.18  58 2.19  57 2.22  70 2.30  12 3.37  17 3.46
                             4 3.50  16 3.52   9 3.65
   6  0.320  0.334  0.049-  83 2.06  67 2.10  62 2.18  59 2.19  54 2.22  71 2.30   9 3.37  18 3.47
                             1 3.50  13 3.52  10 3.65
   7  0.570  0.834  0.049-  84 2.06  68 2.10  63 2.18  60 2.19  55 2.22  72 2.30  10 3.37  19 3.49
                             2 3.50  14 3.52  11 3.65
   8  0.820  0.334  0.049-  85 2.08  69 2.10  64 2.18  61 2.19  56 2.22  73 2.30  11 3.37   3 3.50
                            20 3.52  15 3.52  12 3.65
   9  0.238  0.068  0.057-  62 2.10  86 2.16  67 2.18  70 2.19  75 2.22  58 2.30   6 3.37  17 3.49
                            14 3.50  22 3.51   2 3.52   5 3.65
  10  0.488  0.568  0.057-  63 2.10  87 2.17  68 2.18  71 2.19  76 2.22  59 2.30   7 3.37  18 3.48
                            15 3.50  23 3.52   3 3.52   6 3.65
  11  0.738  0.068  0.057-  64 2.10  69 2.18  88 2.18  72 2.19  77 2.22  60 2.30   8 3.37  19 3.47
                            16 3.50   4 3.52  24 3.53   7 3.65
  12  0.988  0.568  0.057-  65 2.10  66 2.18  89 2.18  73 2.19  74 2.22  61 2.30   5 3.37  13 3.50
                             1 3.52  21 3.52  20 3.53   8 3.65
  13  0.220  0.581  0.068-  51 2.10  66 2.10  79 2.18  54 2.19  90 2.26  71 2.26  74 2.30   2 3.37
                            26 3.49  18 3.50  21 3.50  12 3.50   6 3.52   1 3.65
  14  0.470  0.081  0.068-  52 2.10  67 2.10  80 2.18  55 2.19  72 2.26  91 2.26  75 2.30   3 3.37
                            27 3.48  22 3.49   9 3.50  19 3.51   7 3.52   2 3.65
  15  0.720  0.581  0.068-  53 2.10  68 2.10  81 2.18  56 2.19  73 2.26  92 2.27  76 2.30   4 3.37
                            23 3.50  28 3.50  10 3.50   8 3.52  20 3.53   3 3.65
  16  0.970  0.081  0.068-  50 2.10  69 2.10  78 2.18  57 2.19  70 2.26  93 2.26  77 2.30   1 3.37
                            17 3.49  11 3.50  25 3.50  24 3.51   5 3.52   4 3.65
  17  0.105  0.983  0.171-  94 2.09 110 2.13  82 2.16  70 2.19 106 2.19  93 2.23  86 2.31  32 3.40
                             5 3.46   9 3.49  16 3.49  22 3.53  25 3.54  29 3.67
  18  0.356  0.484  0.171-  95 2.09 111 2.13  83 2.16  71 2.19 107 2.19  90 2.23  87 2.30  29 3.38
                             6 3.47  10 3.48  13 3.50  23 3.52  26 3.54  30 3.65
  19  0.608  0.984  0.171-  96 2.09 112 2.15  84 2.18  72 2.20 108 2.20  91 2.23  88 2.28  30 3.39
                            11 3.47  24 3.48   7 3.49  14 3.51  27 3.52  31 3.70
  20  0.855  0.483  0.173-  97 2.10 113 2.11  85 2.18 109 2.20  92 2.23  73 2.24  89 2.32  31 3.32
                            28 3.49   8 3.52  21 3.52  12 3.53  15 3.53  32 3.63
  21  0.089  0.495  0.182- 114 2.09  98 2.11  97 2.17  90 2.18  74 2.24  89 2.27 102 2.29  25 3.37
                            13 3.50  32 3.51  12 3.52  20 3.52  26 3.62  33 3.64
  22  0.339  0.995  0.182- 115 2.10  99 2.11  94 2.18  91 2.19  75 2.23 103 2.25  86 2.27  26 3.38
                            14 3.49  29 3.51   9 3.51  17 3.53  34 3.60  27 3.62
  23  0.589  0.493  0.182- 100 2.08 116 2.12  95 2.17  92 2.18  76 2.23  87 2.28 104 2.31  27 3.36
                            35 3.49  15 3.50  18 3.52  10 3.52  30 3.56  28 3.69
  24  0.838  0.995  0.183- 101 2.10 117 2.10  96 2.18  93 2.18  77 2.26  88 2.26 105 2.28  28 3.37
                            19 3.48  16 3.51  11 3.53  31 3.54  36 3.61  25 3.64
  25  0.004  0.230  0.191-  97 2.10  78 2.10 121 2.17  98 2.19 105 2.22  93 2.29 106 2.30  21 3.37
                            37 3.44  16 3.50  17 3.54  29 3.55  24 3.64  36 3.67
  26  0.252  0.730  0.191-  94 2.10  79 2.10 102 2.18  99 2.20 118 2.20 107 2.29  90 2.29  22 3.38
                            38 3.45  13 3.49  18 3.54  30 3.54  21 3.62  33 3.65
  27  0.504  0.229  0.191-  80 2.09  95 2.11 119 2.18 100 2.19 103 2.20  91 2.29 108 2.29  23 3.36
                            39 3.47  14 3.48  19 3.52  31 3.58  22 3.62  34 3.66
  28  0.757  0.730  0.191-  81 2.09  96 2.11 101 2.16 120 2.23 104 2.23 109 2.24  92 2.30  24 3.37
                            32 3.48  20 3.49  35 3.49  15 3.50  40 3.58  23 3.69
  29  0.239  0.242  0.200-  98 2.10  83 2.10 122 2.19 103 2.21 111 2.22  86 2.22 106 2.29  18 3.38
                            37 3.42  42 3.50  22 3.51  25 3.55  34 3.63  17 3.67
  30  0.487  0.743  0.199-  99 2.08  84 2.09 112 2.20 123 2.20  87 2.22 104 2.25 107 2.30  19 3.39
                            38 3.45  35 3.48  43 3.49  26 3.54  23 3.56  18 3.65
  31  0.741  0.246  0.204-  85 2.11 100 2.12 113 2.13 105 2.21 124 2.25  88 2.29 108 2.31  20 3.32
                            39 3.46  24 3.54  44 3.56  27 3.58  36 3.62  19 3.70
  32  0.988  0.740  0.203- 101 2.11  82 2.14 110 2.19 102 2.21 125 2.22  89 2.23 109 2.26  17 3.40
                            41 3.46  28 3.48  21 3.51  40 3.54  33 3.62  20 3.63
  33  0.122  0.642  0.314- 142 2.02 126 2.16 138 2.17 114 2.22 125 2.23 118 2.37 102 2.41  45 3.23
                            41 3.47  38 3.54  32 3.62  21 3.64  26 3.65  46 3.71
  34  0.370  0.139  0.313- 143 2.03 127 2.14 139 2.18 115 2.19 122 2.24 119 2.36 103 2.42  46 3.23
                            42 3.49  39 3.53  22 3.60  29 3.63  47 3.64  27 3.66
  35  0.621  0.648  0.304- 140 2.14 128 2.18 123 2.18 104 2.19 116 2.20 120 2.24 144 2.25  49 3.22
                            43 3.43  47 3.44  30 3.48  23 3.49  28 3.49  40 3.58  48 3.71
  36  0.873  0.138  0.314- 145 2.03 129 2.12 141 2.14 117 2.22 124 2.31 105 2.37 121 2.46  48 3.23
                            44 3.42  37 3.55  24 3.61  31 3.62  25 3.67  45 3.77
  37  0.109  0.161  0.312- 130 2.09 121 2.13 106 2.16 122 2.16 129 2.16 134 2.18  29 3.42  25 3.44
                            41 3.45  45 3.51  36 3.55  42 3.58
  38  0.357  0.660  0.312- 131 2.10 126 2.15 118 2.16 107 2.16 135 2.16 123 2.16  42 3.44  30 3.45
                            26 3.45  46 3.53  33 3.54  43 3.58
  39  0.605  0.158  0.314- 136 2.09 132 2.11 127 2.15 108 2.17 124 2.18 119 2.21  43 3.43  47 3.45
                            31 3.46  27 3.47  34 3.53  44 3.71
  40  0.857  0.664  0.321- 133 2.12 146 2.17 137 2.19 120 2.20 125 2.20 128 2.31 109 2.34  48 3.45
                            44 3.52  49 3.53  32 3.54  35 3.58  28 3.58  41 3.58
  41  0.026  0.889  0.324- 110 2.05 137 2.15 138 2.15 129 2.16 130 2.20 125 2.30  37 3.45  32 3.46
                            33 3.47  46 3.50  40 3.58
  42  0.274  0.389  0.325- 111 2.06 139 2.14 126 2.14 131 2.24 134 2.25 122 2.29  38 3.44  47 3.48
                            34 3.49  29 3.50  37 3.58
  43  0.523  0.887  0.325- 112 2.06 140 2.13 127 2.14 132 2.18 135 2.27 123 2.30  35 3.43  39 3.43
                            30 3.49  48 3.56  38 3.58
  44  0.783  0.383  0.333- 147 2.10 141 2.10 133 2.14 113 2.22 128 2.24 124 2.25 136 2.73  49 3.22
                            36 3.42  45 3.42  40 3.52  31 3.56  39 3.71
  45  0.011  0.407  0.336- 142 2.02 114 2.06 133 2.17 141 2.23 134 2.29 121 2.30  33 3.23  44 3.42
                            37 3.51  36 3.77
  46  0.258  0.907  0.336- 143 2.03 115 2.07 130 2.15 138 2.26 118 2.30 135 2.31  34 3.23  41 3.50
                            38 3.53  33 3.71
  47  0.505  0.399  0.334- 116 2.08 136 2.12 131 2.17 144 2.22 119 2.22 139 2.22  35 3.44  39 3.45
                            42 3.48  34 3.64  49 3.86
  48  0.758  0.907  0.337- 145 2.01 117 2.06 132 2.18 137 2.23 120 2.33 140 2.37  36 3.23  40 3.45
                            43 3.56  35 3.71
  49  0.697  0.550  0.417- 147 1.93 148 2.06 144 2.08 146 2.12 128 2.23 166 2.48 165 2.80  35 3.22
                            44 3.22  40 3.53  47 3.86
  50  0.024  0.173  0.000-  16 2.10   1 2.18
  51  0.274  0.673  0.000-  13 2.10   2 2.18
  52  0.524  0.173  0.000-  14 2.10   3 2.18
  53  0.774  0.673  0.000-  15 2.10   4 2.18
  54  0.215  0.432  0.016-  13 2.19   6 2.22   1 2.30
  55  0.465  0.932  0.016-  14 2.19   7 2.22   2 2.30
  56  0.715  0.432  0.016-  15 2.19   8 2.22   3 2.30
  57  0.965  0.932  0.016-  16 2.19   5 2.22   4 2.30
  58  0.207  0.891  0.025-   5 2.19   2 2.26   9 2.30
  59  0.457  0.391  0.025-   6 2.19   3 2.26  10 2.30
  60  0.707  0.891  0.025-   7 2.19   4 2.26  11 2.30
  61  0.957  0.391  0.025-   8 2.19   1 2.26  12 2.30
  62  0.197  0.226  0.044-   9 2.10   1 2.10   6 2.18
  63  0.447  0.726  0.044-  10 2.10   2 2.10   7 2.18
  64  0.697  0.226  0.044-  11 2.10   3 2.10   8 2.18
  65  0.947  0.726  0.044-  12 2.10   4 2.10   5 2.18
  66  0.111  0.675  0.062-   5 2.10  13 2.10  12 2.18
  67  0.361  0.175  0.062-   6 2.10  14 2.10   9 2.18
  68  0.611  0.675  0.062-   7 2.10  15 2.10  10 2.18
  69  0.861  0.175  0.062-   8 2.10  16 2.10  11 2.18
  70  0.101  0.010  0.081-  17 2.19   9 2.19  16 2.26   5 2.30
  71  0.351  0.510  0.081-  18 2.19  10 2.19  13 2.26   6 2.30
  72  0.601  0.010  0.081-  11 2.19  19 2.20  14 2.26   7 2.30
  73  0.851  0.510  0.081-  12 2.19  20 2.24  15 2.26   8 2.30
  74  0.093  0.470  0.090-   1 2.19  12 2.22  21 2.24  13 2.30
  75  0.343  0.970  0.090-   2 2.19   9 2.22  22 2.23  14 2.30
  76  0.593  0.470  0.090-   3 2.19  10 2.22  23 2.23  15 2.30
  77  0.843  0.970  0.090-   4 2.19  11 2.22  24 2.26  16 2.30
  78  0.034  0.229  0.106-   1 2.10  25 2.10  16 2.18
  79  0.284  0.729  0.106-   2 2.10  26 2.10  13 2.18
  80  0.534  0.229  0.106-  27 2.09   3 2.10  14 2.18
  81  0.784  0.729  0.106-  28 2.09   4 2.10  15 2.18
  82  0.045  0.833  0.134-   5 2.07  32 2.14  17 2.16
  83  0.296  0.334  0.133-   6 2.06  29 2.10  18 2.16
  84  0.546  0.834  0.133-   7 2.06  30 2.09  19 2.18
  85  0.795  0.333  0.134-   8 2.08  31 2.11  20 2.18
  86  0.231  0.093  0.146-   9 2.16  29 2.22  22 2.27  17 2.31
  87  0.481  0.593  0.147-  10 2.17  30 2.22  23 2.28  18 2.30
  88  0.731  0.094  0.147-  11 2.18  24 2.26  19 2.28  31 2.29
  89  0.981  0.593  0.147-  12 2.18  32 2.23  21 2.27  20 2.32
  90  0.225  0.552  0.160-  21 2.18  18 2.23  13 2.26  26 2.29
  91  0.476  0.051  0.161-  22 2.19  19 2.23  14 2.26  27 2.29
  92  0.725  0.552  0.161-  23 2.18  20 2.23  15 2.27  28 2.30
  93  0.974  0.053  0.161-  24 2.18  17 2.23  16 2.26  25 2.29
  94  0.214  0.890  0.181-  17 2.09  26 2.10  22 2.18
  95  0.464  0.389  0.180-  18 2.09  27 2.11  23 2.17
  96  0.715  0.889  0.181-  19 2.09  28 2.11  24 2.18
  97  0.965  0.390  0.181-  20 2.10  25 2.10  21 2.17
  98  0.129  0.335  0.192-  29 2.10  21 2.11  25 2.19
  99  0.378  0.835  0.193-  30 2.08  22 2.11  26 2.20
 100  0.628  0.335  0.194-  23 2.08  31 2.12  27 2.19
 101  0.879  0.836  0.194-  24 2.10  32 2.11  28 2.16
 102  0.117  0.671  0.215-  26 2.18  32 2.21  21 2.29  33 2.41
 103  0.367  0.169  0.213-  27 2.20  29 2.21  22 2.25  34 2.42
 104  0.618  0.671  0.214-  35 2.19  28 2.23  30 2.25  23 2.31
 105  0.867  0.170  0.217-  31 2.21  25 2.22  24 2.28  36 2.37
 106  0.115  0.130  0.224-  37 2.16  17 2.19  29 2.29  25 2.30
 107  0.363  0.631  0.224-  38 2.16  18 2.19  26 2.29  30 2.30
 108  0.615  0.131  0.225-  39 2.17  19 2.20  27 2.29  31 2.31
 109  0.864  0.632  0.225-  20 2.20  28 2.24  32 2.26  40 2.34
 110  0.046  0.893  0.240-  41 2.05  17 2.13  32 2.19
 111  0.297  0.395  0.240-  42 2.06  18 2.13  29 2.22
 112  0.547  0.893  0.240-  43 2.06  19 2.15  30 2.20
 113  0.797  0.394  0.242-  20 2.11  31 2.13  44 2.22
 114  0.067  0.493  0.268-  45 2.06  21 2.09  33 2.22
 115  0.314  0.992  0.268-  46 2.07  22 2.10  34 2.19
 116  0.560  0.493  0.268-  47 2.08  23 2.12  35 2.20
 117  0.809  0.994  0.269-  48 2.06  24 2.10  36 2.22
 118  0.250  0.750  0.282-  38 2.16  26 2.20  46 2.30  33 2.37
 119  0.496  0.250  0.281-  27 2.18  39 2.21  47 2.22  34 2.36
 120  0.748  0.747  0.283-  40 2.20  28 2.23  35 2.24  48 2.33
 121  0.005  0.252  0.281-  37 2.13  25 2.17  45 2.30  36 2.46
 122  0.244  0.214  0.291-  37 2.16  29 2.19  34 2.24  42 2.29
 123  0.493  0.712  0.290-  38 2.16  35 2.18  30 2.20  43 2.30
 124  0.742  0.217  0.297-  39 2.18  44 2.25  31 2.25  36 2.31
 125  0.994  0.712  0.294-  40 2.20  32 2.22  33 2.23  41 2.30
 126  0.238  0.554  0.328-  42 2.14  38 2.15  33 2.16
 127  0.485  0.052  0.327-  34 2.14  43 2.14  39 2.15
 128  0.728  0.548  0.327-  35 2.18  49 2.23  44 2.24  40 2.31
 129  0.988  0.056  0.328-  36 2.12  37 2.16  41 2.16
 130  0.146  0.004  0.331-  37 2.09  46 2.15  41 2.20
 131  0.396  0.505  0.335-  38 2.10  47 2.17  42 2.24
 132  0.642  0.000  0.335-  39 2.11  43 2.18  48 2.18
 133  0.896  0.502  0.331-  40 2.12  44 2.14  45 2.17
 134  0.137  0.321  0.351-  37 2.18  42 2.25  45 2.29
 135  0.385  0.819  0.351-  38 2.16  43 2.27  46 2.31
 136  0.612  0.308  0.357-  39 2.09  47 2.12  44 2.73
 137  0.890  0.837  0.343-  41 2.15  40 2.19  48 2.23
 138  0.132  0.800  0.356-  41 2.15  33 2.17  46 2.26
 139  0.379  0.299  0.355-  42 2.14  34 2.18  47 2.22
 140  0.625  0.793  0.354-  43 2.13  35 2.14  48 2.37
 141  0.891  0.294  0.356-  44 2.10  36 2.14  45 2.23
 142  0.067  0.544  0.375-  33 2.02  45 2.02
 143  0.315  0.043  0.374-  46 2.03  34 2.03
 144  0.574  0.542  0.377-  49 2.08  47 2.22  35 2.25
 145  0.814  0.043  0.375-  48 2.01  36 2.03
 146  0.798  0.678  0.403- 148 1.18  49 2.12  40 2.17
 147  0.757  0.418  0.417-  49 1.93  44 2.10
 148  0.767  0.690  0.448- 146 1.18  49 2.06
 149  0.491  0.519  0.582- 164 1.10
 150  0.650  0.490  0.558- 163 1.10
 151  0.508  0.290  0.530- 162 1.10
 152  0.615  0.448  0.491- 163 1.12
 153  0.427  0.323  0.579- 162 1.10
 154  0.540  0.330  0.599- 162 1.10
 155  0.584  0.672  0.546- 165 1.11
 156  0.458  0.481  0.513- 164 1.10
 157  0.563  0.643  0.476- 165 1.11
 158  0.748  0.658  0.531- 166 1.10
 159  0.767  0.850  0.487- 167 1.10
 160  0.677  0.838  0.535- 167 1.10
 161  0.656  0.830  0.463- 167 1.10
 162  0.495  0.346  0.564- 153 1.10 154 1.10 151 1.10 164 1.53
 163  0.600  0.505  0.526- 150 1.10 152 1.12 164 1.53 165 1.54
 164  0.506  0.466  0.546- 149 1.10 156 1.10 162 1.53 163 1.53
 165  0.609  0.628  0.510- 155 1.11 157 1.11 163 1.54 166 1.55  49 2.80
 166  0.704  0.681  0.497- 158 1.10 167 1.54 165 1.55  49 2.48
 167  0.702  0.807  0.496- 159 1.10 161 1.10 160 1.10 166 1.54
 
  Warning from LATTYP: Monoclinic adjustement (A1->A3, A2->A1, A3->A2)!
  Warning from LATTYP: Got some problem with cell dimensions!
  Tried to take original basis but could not verify dimensions!
  LATTYP: Found a simple monoclinic cell.
 ALAT       =    18.5584556648
 B/A-ratio  =     1.2917238965
 C/A-ratio  =     1.7011970181
 COS(beta)  =    -0.9496615564
  
  Lattice vectors:
  
 A1 = ( -14.0305058395, -12.1474763861,   0.0000000000)
 A2 = (   0.0000000000,   0.0000000000, -23.9724006653)
 A3 = (  29.1411063110,  12.1474763861,   0.0000000000)


Analysis of symmetry for initial positions (statically):
=====================================================================
 Subroutine PRICEL returns:
 Original cell was already a primitive cell.
 

 Routine SETGRP: Setting up the symmetry group for a 
 simple monoclinic supercell.


 Subroutine GETGRP returns: Found  1 space group operations
 (whereof  1 operations were pure point group operations)
 out of a pool of  4 trial point group operations.


The static configuration has the point symmetry C_1 .


Analysis of symmetry for dynamics (positions and initial velocities):
=====================================================================
 Subroutine PRICEL returns:
 Original cell was already a primitive cell.
 

 Routine SETGRP: Setting up the symmetry group for a 
 simple monoclinic supercell.


 Subroutine GETGRP returns: Found  1 space group operations
 (whereof  1 operations were pure point group operations)
 out of a pool of  4 trial point group operations.


The dynamic configuration has the point symmetry C_1 .


Analysis of constrained symmetry for selective dynamics:
=====================================================================
 Subroutine PRICEL returns:
 Original cell was already a primitive cell.
 

 Routine SETGRP: Setting up the symmetry group for a 
 simple monoclinic supercell.


 Subroutine GETGRP returns: Found  1 space group operations
 (whereof  1 operations were pure point group operations)
 out of a pool of  4 trial point group operations.


The constrained configuration has the point symmetry C_1 .


Analysis of structural, dynamic, and magnetic symmetry:
=====================================================================
 Subroutine PRICEL returns:
 Original cell was already a primitive cell.
 

 Routine SETGRP: Setting up the symmetry group for a 
 simple monoclinic supercell.


 Subroutine GETGRP returns: Found  1 space group operations
 (whereof  1 operations were pure point group operations)
 out of a pool of  4 trial point group operations.


The magnetic configuration has the point symmetry C_1 .


 Subroutine INISYM returns: Found  1 space group operations
 (whereof  1 operations are pure point group operations),
 and found     1 'primitive' translations

 
 
 KPOINTS: Monkhorst Pack                          

Automatic generation of k-mesh.
Space group operators:
 irot       det(A)        alpha          n_x          n_y          n_z        tau_x        tau_y        tau_z
    1     1.000000     0.000001     1.000000     0.000000     0.000000     0.000000     0.000000     0.000000
 
 Subroutine IBZKPT returns following result:
 ===========================================
 
 Found      2 irreducible k-points:
 
 Following reciprocal coordinates:
            Coordinates               Weight
  0.250000  0.250000  0.000000      2.000000
 -0.250000  0.250000  0.000000      2.000000
 
 Following cartesian coordinates:
            Coordinates               Weight
  0.016545  0.022051  0.000000      2.000000
 -0.016545  0.019109  0.000000      2.000000
 


--------------------------------------------------------------------------------------------------------




 Dimension of arrays:
   k-points           NKPTS =      2   k-points in BZ     NKDIM =      2   number of bands    NBANDS=    640
   number of dos      NEDOS =    301   number of ions     NIONS =    167
   non local maximal  LDIM  =      6   non local SUM 2l+1 LMDIM =     18
   total plane-waves  NPLWV = 823200
   max r-space proj   IRMAX =   2561   max aug-charges    IRDMAX=   7978
   dimension x,y,z NGX =    84 NGY =   70 NGZ =  140
   dimension x,y,z NGXF=   168 NGYF=  140 NGZF=  280
   support grid    NGXF=   168 NGYF=  140 NGZF=  280
   ions per type =              49  98  14   6
   NGX,Y,Z   is equivalent  to a cutoff of   9.24,  9.54,  9.71 a.u.
   NGXF,Y,Z  is equivalent  to a cutoff of  18.48, 19.08, 19.42 a.u.

 SYSTEM =  mZrO2_n111_dimer                        
 POSCAR =  Zr   O    H    C                        

 Startparameter for this run:
   NWRITE =      2    write-flag & timer
   PREC   = normal    normal or accurate (medium, high low for compatibility)
   ISTART =      1    job   : 0-new  1-cont  2-samecut
   ICHARG =      1    charge: 1-file 2-atom 10-const
   ISPIN  =      2    spin polarized calculation?
   LNONCOLLINEAR =      F non collinear calculations
   LSORBIT =      F    spin-orbit coupling
   INIWAV =      1    electr: 0-lowe 1-rand  2-diag
   LASPH  =      F    aspherical Exc in radial PAW
   METAGGA=      F    non-selfconsistent MetaGGA calc.

 Electronic Relaxation 1
   ENCUT  =  500.0 eV  36.75 Ry    6.06 a.u.  27.55 22.24 43.71*2*pi/ulx,y,z
   ENINI  =  500.0     initial cutoff
   ENAUG  =  644.9 eV  augmentation charge cutoff
   NELM   =    300;   NELMIN=  2; NELMDL=  0     # of ELM steps 
   EDIFF  = 0.1E-05   stopping-criterion for ELM
   LREAL  =      T    real-space projection
   NLSPLINE    = F    spline interpolate recip. space projectors
   LCOMPAT=      F    compatible to vasp.4.4
   GGA_COMPAT  = T    GGA compatible to vasp.4.4-vasp.4.6
   LMAXPAW     = -100 max onsite density
   LMAXMIX     =    2 max onsite mixed and CHGCAR
   VOSKOWN=      0    Vosko Wilk Nusair interpolation
   ROPT   =   -0.00050  -0.00050  -0.00050  -0.00050
 Ionic relaxation
   EDIFFG = -.5E-01   stopping-criterion for IOM
   NSW    =      0    number of steps for IOM
   NBLOCK =      1;   KBLOCK =      1    inner block; outer block 
   IBRION =     -1    ionic relax: 0-MD 1-quasi-New 2-CG
   NFREE  =      0    steps in history (QN), initial steepest desc. (CG)
   ISIF   =      2    stress and relaxation
   IWAVPR =     10    prediction:  0-non 1-charg 2-wave 3-comb
   ISYM   =      2    0-nonsym 1-usesym 2-fastsym
   LCORR  =      T    Harris-Foulkes like correction to forces

   POTIM  = 0.0000    time-step for ionic-motion
   TEIN   =    0.0    initial temperature
   TEBEG  =    0.0;   TEEND  =   0.0 temperature during run
   SMASS  =  -3.00    Nose mass-parameter (am)
   estimated Nose-frequenzy (Omega)   =  0.10E-29 period in steps =  0.00 mass=  -0.522E-26a.u.
   SCALEE = 1.0000    scale energy and forces
   NPACO  =    256;   APACO  = 16.0  distance and # of slots for P.C.
   PSTRESS=    0.0 pullay stress

  Mass of Ions in am
   POMASS =  91.22 16.00  1.00 12.01
  Ionic Valenz
   ZVAL   =  12.00  6.00  1.00  4.00
  Atomic Wigner-Seitz radii
   RWIGS  =  -1.00 -1.00 -1.00 -1.00
  virtual crystal weights 
   VCA    =   1.00  1.00  1.00  1.00
   NELECT =    1214.0000    total number of electrons
   NUPDOWN=      -1.0000    fix difference up-down

 DOS related values:
   EMIN   =  10.00;   EMAX   =-10.00  energy-range for DOS
   EFERMI =   0.00
   ISMEAR =     0;   SIGMA  =   0.05  broadening in eV -4-tet -1-fermi 0-gaus

 Electronic relaxation 2 (details)
   IALGO  =     38    algorithm
   LDIAG  =      T    sub-space diagonalisation (order eigenvalues)
   LSUBROT=      F    optimize rotation matrix (better conditioning)
   TURBO    =      0    0=normal 1=particle mesh
   IRESTART =      0    0=no restart 2=restart with 2 vectors
   NREBOOT  =      0    no. of reboots
   NMIN     =      0    reboot dimension
   EREF     =   0.00    reference energy to select bands
   IMIX   =      4    mixing-type and parameters
     AMIX     =   0.40;   BMIX     =  1.00
     AMIX_MAG =   1.60;   BMIX_MAG =  1.00
     AMIN     =   0.10
     WC   =   100.;   INIMIX=   1;  MIXPRE=   1;  MAXMIX= -45

 Intra band minimization:
   WEIMIN = 0.0000     energy-eigenvalue tresh-hold
   EBREAK =  0.39E-09  absolut break condition
   DEPER  =   0.30     relativ break condition  

   TIME   =   0.40     timestep for ELM

  volume/ion in A,a.u.               =      26.35       177.81
  Fermi-wavevector in a.u.,A,eV,Ry     =   1.065748  2.013972 15.453760  1.135819
  Thomas-Fermi vector in A             =   2.201310
 
 Write flags
   LWAVE        =      T    write WAVECAR
   LDOWNSAMPLE  =      F    k-point downsampling of WAVECAR
   LCHARG       =      T    write CHGCAR
   LVTOT        =      F    write LOCPOT, total local potential
   LVHAR        =      F    write LOCPOT, Hartree potential only
   LELF         =      F    write electronic localiz. function (ELF)
   LORBIT       =      0    0 simple, 1 ext, 2 COOP (PROOUT), +10 PAW based schemes


 Dipole corrections
   LMONO  =      F    monopole corrections only (constant potential shift)
   LDIPOL =      F    correct potential (dipole corrections)
   IDIPOL =      3    1-x, 2-y, 3-z, 4-all directions 
   EPSILON=  1.0000000 bulk dielectric constant

 LDA+U is selected, type is set to LDAUTYPE =  2
   angular momentum for each species LDAUL =     2   -1   -1   -1
   U (eV)           for each species LDAUU =   4.0  0.0  0.0  0.0
   J (eV)           for each species LDAUJ =   0.0  0.0  0.0  0.0
 Exchange correlation treatment:
   GGA     =    --    GGA type
   LEXCH   =     8    internal setting for exchange type
   VOSKOWN=      0    Vosko Wilk Nusair interpolation
   LHFCALC =     F    Hartree Fock is set to
   LHFONE  =     F    Hartree Fock one center treatment
   AEXX    =    0.0000 exact exchange contribution

 Linear response parameters
   LEPSILON=     F    determine dielectric tensor
   LRPA    =     F    only Hartree local field effects (RPA)
   LNABLA  =     F    use nabla operator in PAW spheres
   LVEL    =     F    velocity operator in full k-point grid
   LINTERFAST=   F  fast interpolation
   KINTER  =     0    interpolate to denser k-point grid
   CSHIFT  =0.1000    complex shift for real part using Kramers Kronig
   OMEGAMAX=  -1.0    maximum frequency
   DEG_THRESHOLD= 0.2000000E-02 threshold for treating states as degnerate
   RTIME   =   -0.100 relaxation time in fs
  (WPLASMAI=    0.000 imaginary part of plasma frequency in eV, 0.658/RTIME)
   DFIELD  = 0.0000000 0.0000000 0.0000000 field for delta impulse in time
 
 Orbital magnetization related:
   ORBITALMAG=     F  switch on orbital magnetization
   LCHIMAG   =     F  perturbation theory with respect to B field
   DQ        =  0.001000  dq finite difference perturbation B field
   LLRAUG    =     F  two centre corrections for induced B field



--------------------------------------------------------------------------------------------------------


 Static calculation
 charge density and potential will be updated during run
 spin polarized calculation
 Variant of blocked Davidson
 Davidson routine will perform the subspace rotation
 perform sub-space diagonalisation
    after iterative eigenvector-optimisation
 modified Broyden-mixing scheme, WC =      100.0
 initial mixing is a Kerker type mixing with AMIX =  0.4000 and BMIX =      1.0000
 Hartree-type preconditioning will be used
 using additional bands           33
 real space projection scheme for non local part
 use partial core corrections
 calculate Harris-corrections to forces 
   (improved forces if not selfconsistent)
 use gradient corrections 
 use of overlap-Matrix (Vanderbilt PP)
 Gauss-broadening in eV      SIGMA  =   0.05


--------------------------------------------------------------------------------------------------------


  energy-cutoff  :      500.00
  volume of cell :     4400.27
      direct lattice vectors                 reciprocal lattice vectors
    15.110600471  0.000000000  0.000000000     0.066178707  0.005884289  0.000000000
    -1.080094632 12.147476386  0.000000000     0.000000000  0.082321625  0.000000000
     0.000000000  0.000000000 23.972400665     0.000000000  0.000000000  0.041714637

  length of vectors
    15.110600471 12.195400238 23.972400665     0.066439793  0.082321625  0.041714637


 
 old parameters found on file WAVECAR:
  energy-cutoff  :      500.00
  volume of cell :     4400.27
      direct lattice vectors                 reciprocal lattice vectors
    15.110600471  0.000000000  0.000000000     0.066178707  0.005884289  0.000000000
    -1.080094632 12.147476386  0.000000000     0.000000000  0.082321625  0.000000000
     0.000000000  0.000000000 23.972400665     0.000000000  0.000000000  0.041714637

  length of vectors

 
 k-points in units of 2pi/SCALE and weight: Monkhorst Pack                          
   0.01654468  0.02205148  0.00000000       0.500
  -0.01654468  0.01910933  0.00000000       0.500
 
 k-points in reciprocal lattice and weights: Monkhorst Pack                          
   0.25000000  0.25000000  0.00000000       0.500
  -0.25000000  0.25000000  0.00000000       0.500
 
 position of ions in fractional coordinates (direct lattice) 
   0.08848000  0.32082999  0.03824000
   0.33847998  0.82083000  0.03824000
   0.58847999  0.32082999  0.03824000
   0.83848001  0.82083000  0.03824000
   0.07020001  0.83354995  0.04873000
   0.32019998  0.33355000  0.04873000
   0.57020004  0.83354995  0.04873000
   0.82020001  0.33355000  0.04873000
   0.23783000  0.06778000  0.05703000
   0.48783004  0.56778001  0.05703000
   0.73783001  0.06778000  0.05703000
   0.98782997  0.56778001  0.05703000
   0.21954999  0.58051001  0.06752000
   0.46955000  0.08051000  0.06752000
   0.71954999  0.58051001  0.06752000
   0.96955000  0.08051000  0.06752000
   0.10513419  0.98250937  0.17090413
   0.35588643  0.48360240  0.17102677
   0.60752837  0.98444483  0.17138193
   0.85532069  0.48316212  0.17330147
   0.08869812  0.49465841  0.18244522
   0.33851669  0.99503407  0.18213505
   0.58861937  0.49252532  0.18201598
   0.83794250  0.99537970  0.18304140
   0.00391010  0.23021687  0.19141187
   0.25243613  0.72988678  0.19123909
   0.50361378  0.22866031  0.19081737
   0.75727016  0.72966927  0.19122176
   0.23889458  0.24170054  0.20048324
   0.48717669  0.74305733  0.19949273
   0.74065350  0.24552016  0.20401463
   0.98767294  0.74000789  0.20270461
   0.12167401  0.64178865  0.31391012
   0.37007173  0.13949130  0.31267676
   0.62075339  0.64755344  0.30408734
   0.87275141  0.13835432  0.31410887
   0.10853221  0.16122002  0.31218009
   0.35685255  0.65957241  0.31244386
   0.60454822  0.15802920  0.31426057
   0.85664686  0.66439703  0.32124097
   0.02593795  0.88939943  0.32432379
   0.27394413  0.38856335  0.32505622
   0.52272182  0.88731962  0.32455207
   0.78322830  0.38329527  0.33348082
   0.01073956  0.40744668  0.33589574
   0.25757020  0.90678753  0.33607586
   0.50469048  0.39912558  0.33396064
   0.75828491  0.90688134  0.33746535
   0.69682862  0.55041641  0.41737245
   0.02440000  0.17254999  0.00000000
   0.27439999  0.67255002  0.00000000
   0.52439999  0.17254999  0.00000000
   0.77439999  0.67255002  0.00000000
   0.21455000  0.43156997  0.01581000
   0.46455001  0.93156996  0.01581000
   0.71455008  0.43156997  0.01581000
   0.96455004  0.93156996  0.01581000
   0.20673000  0.89092997  0.02490000
   0.45673000  0.39092998  0.02490000
   0.70672997  0.89092997  0.02490000
   0.95673004  0.39092998  0.02490000
   0.19748000  0.22610000  0.04418000
   0.44748002  0.72610003  0.04418000
   0.69748003  0.22610000  0.04418000
   0.94747999  0.72610003  0.04418000
   0.11054000  0.67523994  0.06158000
   0.36054002  0.17523999  0.06158000
   0.61053998  0.67523994  0.06158000
   0.86053999  0.17523999  0.06158000
   0.10129000  0.01041000  0.08086000
   0.35129000  0.51041000  0.08086000
   0.60128997  0.01041000  0.08086000
   0.85128994  0.51041000  0.08086000
   0.09348000  0.46976000  0.08995000
   0.34348000  0.96975995  0.08995000
   0.59348001  0.46976000  0.08995000
   0.84347996  0.96975995  0.08995000
   0.03362000  0.22878000  0.10576000
   0.28361999  0.72877998  0.10576000
   0.53361997  0.22878000  0.10576000
   0.78362002  0.72877998  0.10576000
   0.04473580  0.83263130  0.13368310
   0.29580667  0.33384508  0.13336872
   0.54606736  0.83402241  0.13335130
   0.79514858  0.33297489  0.13412490
   0.23126083  0.09334039  0.14612131
   0.48134421  0.59348978  0.14658994
   0.73146619  0.09383485  0.14699133
   0.98138032  0.59341285  0.14696201
   0.22502187  0.55227400  0.16041484
   0.47599483  0.05097469  0.16064823
   0.72468800  0.55206410  0.16079545
   0.97438268  0.05274808  0.16084718
   0.21424981  0.89025684  0.18097024
   0.46408957  0.38928181  0.18024394
   0.71452265  0.88887974  0.18104864
   0.96487154  0.39003818  0.18127816
   0.12942747  0.33489563  0.19248777
   0.37833406  0.83512761  0.19324886
   0.62798572  0.33508160  0.19445782
   0.87891212  0.83649204  0.19414774
   0.11692742  0.67125761  0.21465480
   0.36660722  0.16929939  0.21279592
   0.61761126  0.67077936  0.21355070
   0.86700157  0.16997039  0.21654962
   0.11487858  0.12997323  0.22370323
   0.36316348  0.63075337  0.22380393
   0.61464867  0.13132781  0.22525650
   0.86368175  0.63199989  0.22538301
   0.04631008  0.89335500  0.23978216
   0.29682843  0.39542360  0.24042913
   0.54687660  0.89329133  0.24000646
   0.79723200  0.39389670  0.24152996
   0.06661796  0.49274842  0.26847965
   0.31409125  0.99200469  0.26827834
   0.55985942  0.49310462  0.26843044
   0.80870060  0.99351389  0.26886927
   0.25025428  0.75027818  0.28241657
   0.49632549  0.24963657  0.28076176
   0.74821121  0.74724273  0.28339268
   0.00469854  0.25189121  0.28108712
   0.24447746  0.21384038  0.29072733
   0.49258441  0.71194475  0.28978136
   0.74214000  0.21691021  0.29674607
   0.99367719  0.71157364  0.29390090
   0.23761437  0.55401464  0.32773670
   0.48450135  0.05217280  0.32657120
   0.72807474  0.54768015  0.32654486
   0.98835000  0.05634868  0.32839336
   0.14598921  0.00404345  0.33052673
   0.39628802  0.50492841  0.33511937
   0.64173036  0.00009766  0.33477779
   0.89581342  0.50232112  0.33051363
   0.13687467  0.32140782  0.35145186
   0.38450750  0.81891776  0.35136288
   0.61200829  0.30800189  0.35720742
   0.88953730  0.83744676  0.34339002
   0.13163262  0.79996083  0.35627329
   0.37913564  0.29858352  0.35515503
   0.62545965  0.79325016  0.35430418
   0.89075715  0.29379298  0.35554141
   0.06652581  0.54353124  0.37482384
   0.31470975  0.04309576  0.37447917
   0.57389260  0.54228331  0.37748309
   0.81399052  0.04291232  0.37534284
   0.79831409  0.67843131  0.40317086
   0.75741025  0.41803169  0.41727715
   0.76732947  0.68978570  0.44755612
   0.49098536  0.51939291  0.58173541
   0.64968054  0.48959343  0.55790738
   0.50794873  0.29017287  0.52978263
   0.61478460  0.44799534  0.49090508
   0.42675045  0.32299753  0.57900955
   0.54029308  0.32964797  0.59869373
   0.58351616  0.67232050  0.54616663
   0.45793092  0.48149491  0.51344982
   0.56250792  0.64265971  0.47594993
   0.74812287  0.65829559  0.53145766
   0.76722752  0.85033603  0.48725157
   0.67739667  0.83825505  0.53536094
   0.65615827  0.82985531  0.46256900
   0.49485312  0.34574265  0.56438976
   0.60013955  0.50477651  0.52571145
   0.50635641  0.46633764  0.54639495
   0.60926883  0.62790949  0.51028520
   0.70437974  0.68061325  0.49719511
   0.70172538  0.80657553  0.49559369
 
 position of ions in cartesian coordinates  (Angst):
   0.99045921  3.89727473  0.91670460
   4.22806168  9.97101307  0.91670460
   8.54575920  3.89727473  0.91670460
  11.78336239  9.97101307  0.91670460
   0.16045142 10.12552833  1.16817511
   4.47814847  4.05179071  1.16817511
   7.71575212 10.12552833  1.16817511
  12.03344917  4.05179071  1.16817511
   3.52054525  0.82335597  1.36714601
   6.75814868  6.89709425  1.36714601
  11.07584571  0.82335597  1.36714601
  14.31344795  6.89709425  1.36714601
   2.69052649  7.05173159  1.61861647
   7.00822400  0.97799331  1.61861647
  10.24582672  7.05173159  1.61861647
  14.56352424  0.97799331  1.61861647
   0.52743770 11.93500933  4.09698232
   4.85532133  5.87454873  4.09992228
   8.11682487 11.95852031  4.10843629
  12.40254843  5.86920043  4.15445235
   0.80600393  6.00885134  4.37364994
   4.04045946 12.08715292  4.36621446
   8.36241823  5.98293966  4.36335995
  11.58671000 12.09135141  4.38794183
  -0.18957198  2.79655394  4.58860202
   3.02611472  8.86628242  4.58446012
   7.36293178  2.77764572  4.57435038
  10.65469503  8.86364024  4.58404468
   3.34878103  2.93605159  4.80606464
   6.55896003  9.02627135  4.78231962
  10.92653415  2.98245029  4.89072038
  14.12505259  8.98922843  4.85931617
   1.14537495  7.79611242  7.52517909
   5.44134222  1.69446730  7.49561267
   8.68053755  7.86614007  7.28970345
  13.03836207  1.68065586  7.52994356
   1.46585398  1.95841643  7.48370614
   4.67985573  8.01214022  7.49002930
   8.96440011  1.91965602  7.53358023
  12.22683680  8.07074729  7.70091729
  -0.56869748 10.80395859  7.77481974
   3.71977506  4.72006406  7.79237787
   6.94025148 10.77869413  7.78029224
  11.42105476  4.65607020  7.99433582
  -0.27779972  4.94944894  8.05222716
   2.91262411 11.01518011  8.05654513
   7.19508287  4.84836857  8.00583817
  10.47862261 11.01631969  8.08985461
   9.93499699  6.68617031 10.00541967
   0.18232835  2.09604693  0.00000000
   3.41993094  8.16978550  0.00000000
   7.73762846  2.09604693  0.00000000
  10.97523117  8.16978550  0.00000000
   2.77584291  5.24248600  0.37900365
   6.01344586 11.31622410  0.37900365
  10.33114434  5.24248600  0.37900365
  13.56874656 11.31622410  0.37900365
   2.16152573 10.82255077  0.59691280
   6.47922326  4.74881268  0.59691280
   9.71682548 10.82255077  0.59691280
  14.03452396  4.74881268  0.59691280
   2.73983193  2.74654436  1.05910064
   5.97743511  8.82028293  1.05910064
  10.29513263  2.74654436  1.05910064
  13.53273487  8.82028293  1.05910064
   0.94100273  8.20246124  1.47622036
   5.25870037  2.12872362  1.47622036
   8.49630260  8.20246124  1.47622036
  12.81400013  2.12872362  1.47622036
   1.51930892  0.12645522  1.93840825
   4.75691175  6.20019341  1.93840825
   9.07460880  0.12645522  1.93840825
  12.31221104  6.20019341  1.93840825
   0.90515363  5.70639848  2.15631746
   4.14275646 11.78013610  2.15631746
   8.46045399  5.70639848  2.15631746
  11.69805622 11.78013610  2.15631746
   0.26091433  2.77909971  2.53532100
   3.49851704  8.85283756  2.53532100
   7.81621408  2.77909971  2.53532100
  11.05381775  8.85283756  2.53532100
  -0.22333573 10.11436908  3.20470475
   4.10923217  4.05537522  3.19716835
   7.35058263 10.13126751  3.19675068
  11.65552813  4.04480460  3.21529582
   3.39367349  1.13385013  3.50287862
   6.63237487  7.20940308  3.51411273
  10.95154289  1.13985665  3.52373512
  14.18830385  7.20846858  3.52303207
   2.80370738  6.70873539  3.84552892
   7.13751022  0.61921380  3.85112368
  10.35418938  6.70618562  3.85465304
  14.66653454  0.64075604  3.85589296
   2.27588160 10.81437389  4.33829101
   6.59221084  4.72879154  4.32088006
   9.83679206 10.79764568  4.34017058
  14.15851027  4.73797955  4.34567262
   1.59400780  4.06813674  4.61439406
   4.81483791 10.14469287  4.63263919
   9.12732142  4.07039585  4.66162080
  12.37739939 10.16126724  4.65418749
   1.04182171  8.15408601  5.14579095
   5.35679592  2.05656038  5.10122909
   8.60797176  8.14827648  5.11932296
  12.91733027  2.06471124  5.19121419
   1.59550086  1.57884679  5.36270340
   4.80634489  7.66206167  5.36511744
   9.14586409  1.59530148  5.39993909
  12.36813018  7.67720369  5.40297194
  -0.26513486 10.85200878  5.74815393
   4.05816097  4.80339881  5.76366347
   7.29879468 10.85123536  5.75353110
  11.62120847  4.78485089  5.79005301
   0.47442251  5.98564975  6.43610164
   3.67464845 12.05035358  6.43127580
   7.92721240  5.98997677  6.43492210
  11.14686263 12.06868657  6.44544182
   2.97112101  9.11398645  6.77020315
   7.23014511  3.03245438  6.73053330
  10.49882779  9.07711337  6.79360276
  -0.20106862  3.05984248  6.73833310
   3.46323334  2.59762096  6.96943209
   6.67427850  8.64833201  6.94675496
  10.97989742  2.63491165  7.11371576
  14.24649214  8.64382395  7.04551001
   2.99210761  6.72987971  7.85663555
   7.26475476  0.63376790  7.82869564
  10.41010012  6.65293171  7.82806413
  14.87370004  0.68449428  7.87237708
   2.20161728  0.04911774  7.92351923
   5.44277944  6.13360597  8.03361580
   9.69682561  0.00118628  8.02542733
  12.99372428  6.10193394  7.92320524
   1.72110755  3.90429390  8.42514476
   4.92563055  9.94778416  8.42301166
   8.91514151  3.74144572  8.56311947
  12.53692107 10.17286468  8.23188321
   1.12501458  9.71750534  8.54072605
   5.40646876  3.62703628  8.51391877
   8.59428560  9.63598757  8.49352172
  13.14255125  3.56884333  8.52318122
   0.41817981  6.60253288  8.98542716
   4.70890574  0.52350467  8.97716465
   8.08614450  6.58737375  9.04917585
  12.25353610  0.52127640  8.99786904
  11.33023523  8.24122829  9.66497349
  10.99340982  5.07803011 10.00313501
  10.84977515  8.37915556 10.72899459
   6.85809009  6.30931312 13.94559432
   9.28825578  5.94732458 13.37437930
   7.36199623  3.52486812 12.70016142
   8.80588703  5.44201281 11.76817334
   6.09958768  3.92360483 13.88024898
   7.80810194  4.00439089 14.35212598
   8.09110986  8.16699734 13.09292517
   6.39955110  5.84894808 12.30862479
   7.80569909  7.80669371 11.40966253
  10.59356431  7.99663016 12.74031592
  10.67482507 10.32943689 11.68058983
   9.33047561 10.18268338 12.83388693
   9.01862316 10.08064775 11.08888937
   7.10409299  4.19990069 13.52977758
   8.52326256  6.13176076 12.60256554
   7.14766063  5.66482549 13.09839863
   8.52821616  7.62751570 12.23276115
   9.90847418  8.26773341 11.91896048
   9.73231395  9.79785726 11.88057056
 


--------------------------------------------------------------------------------------------------------


 k-point  1 :   0.2500 0.2500 0.0000  plane waves:  111683
 k-point  2 :  -0.2500 0.2500 0.0000  plane waves:  111725

 maximum and minimum number of plane-waves per node :     18644    18587

 maximum number of plane-waves:    111725
 maximum index in each direction: 
   IXMAX=   27   IYMAX=   21   IZMAX=   43
   IXMIN=  -27   IYMIN=  -22   IZMIN=  -43


 real space projection operators:
  total allocation   :      22445.67 KBytes
  max/ min on nodes  :       3749.20       3735.96


 parallel 3D FFT for wavefunctions:
    minimum data exchange during FFTs selected (reduces bandwidth)
 parallel 3D FFT for charge:
    minimum data exchange during FFTs selected (reduces bandwidth)


 total amount of memory used by VASP MPI-rank0   175092. kBytes
=======================================================================

   base      :      30000. kBytes
   nonlr-proj:      11804. kBytes
   fftplans  :       9317. kBytes
   grid      :      26149. kBytes
   one-center:        870. kBytes
   wavefun   :      96952. kBytes
 
     INWAV:  cpu time    8.6894: real time    8.7226
 Broyden mixing: mesh for mixing (old mesh)
   NGX = 55   NGY = 45   NGZ = 87
  (NGX  =168   NGY  =140   NGZ  =280)
  gives a total of 215325 points

 initial charge density was supplied:
 number of electron    1213.9999987 magnetization      -0.0000000
 keeping initial charge density in first step


--------------------------------------------------------------------------------------------------------


 Maximum index for non-local projection operator          431
 Maximum index for augmentation-charges          483 (set IRDMAX)


--------------------------------------------------------------------------------------------------------


 First call to EWALD:  gamma=   0.108
 Maximum number of real-space cells 3x 4x 2
 Maximum number of reciprocal cells 3x 2x 4

    FEWALD:  cpu time    0.0054: real time    0.0054


--------------------------------------- Iteration      1(   1)  ---------------------------------------


    POTLOK:  cpu time    0.2228: real time    0.2252
    SETDIJ:  cpu time    0.0221: real time    0.0222
     EDDAV:  cpu time   28.3940: real time   28.4794
       DOS:  cpu time    0.0007: real time    0.0007
    CHARGE:  cpu time    1.2113: real time    1.2142
    MIXING:  cpu time    0.0066: real time    0.0067
    --------------------------------------------
      LOOP:  cpu time   29.8576: real time   29.9485

 eigenvalue-minimisations  :  6272
 total energy-change (2. order) :-0.1377850E+04  (-0.1320113E+00)
 number of electron    1213.9999987 magnetization      -0.0000000
 augmentation part       74.0406746 magnetization       0.0000000

 Broyden mixing:
  rms(total) = 0.94144E-01    rms(broyden)= 0.94065E-01
  rms(prec ) = 0.95343E-01
  weight for this iteration     100.00

 Free energy of the ion-electron system (eV)
  ---------------------------------------------------
  alpha Z        PSCENC =      2166.38705829
  Ewald energy   TEWEN  =    383078.62824726
  -Hartree energ DENC   =   -480257.50980632
  -exchange      EXHF   =         0.00000000
  -V(xc)+E(xc)   XCENC  =      5337.64587840
  PAW double counting   =    130287.59530370  -129610.10147970
  entropy T*S    EENTRO =        -0.00000000
  eigenvalues    EBANDS =    -18735.76169707
  atomic energy  EATOM  =    106355.26625530
  Solvation  Ediel_sol  =         0.00000000
  ---------------------------------------------------
  free energy    TOTEN  =     -1377.85024014 eV

  energy without entropy =    -1377.85024014  energy(sigma->0) =    -1377.85024014


--------------------------------------------------------------------------------------------------------




--------------------------------------- Iteration      1(   2)  ---------------------------------------


    POTLOK:  cpu time    0.2139: real time    0.2166
    SETDIJ:  cpu time    0.0217: real time    0.0217
     EDDAV:  cpu time   27.9674: real time   28.0526
       DOS:  cpu time    0.0004: real time    0.0004
    CHARGE:  cpu time    1.1872: real time    1.1900
    MIXING:  cpu time    0.0061: real time    0.0062
    --------------------------------------------
      LOOP:  cpu time   29.3968: real time   29.4875

 eigenvalue-minimisations  :  6176
 total energy-change (2. order) :-0.1725760E+01  (-0.1176211E+00)
 number of electron    1213.9999987 magnetization      -0.0000000
 augmentation part       73.9624159 magnetization      -0.0000000

 Broyden mixing:
  rms(total) = 0.40757E-01    rms(broyden)= 0.40640E-01
  rms(prec ) = 0.42871E-01
  weight for this iteration     100.00

 eigenvalues of (default mixing * dielectric matrix)
  average eigenvalue GAMMA=   0.7355
  0.7355

 Free energy of the ion-electron system (eV)
  ---------------------------------------------------
  alpha Z        PSCENC =      2166.38705829
  Ewald energy   TEWEN  =    383078.62824726
  -Hartree energ DENC   =   -480259.26617089
  -exchange      EXHF   =         0.00000000
  -V(xc)+E(xc)   XCENC  =      5337.74510591
  PAW double counting   =    130145.68292458  -129467.15720972
  entropy T*S    EENTRO =        -0.00000000
  eigenvalues    EBANDS =    -18736.86221137
  atomic energy  EATOM  =    106355.26625530
  Solvation  Ediel_sol  =         0.00000000
  ---------------------------------------------------
  free energy    TOTEN  =     -1379.57600064 eV

  energy without entropy =    -1379.57600064  energy(sigma->0) =    -1379.57600064


--------------------------------------------------------------------------------------------------------




--------------------------------------- Iteration      1(   3)  ---------------------------------------


    POTLOK:  cpu time    0.2166: real time    0.2192
    SETDIJ:  cpu time    0.0215: real time    0.0216
     EDDAV:  cpu time   29.8621: real time   29.9488
       DOS:  cpu time    0.0007: real time    0.0007
    CHARGE:  cpu time    1.2124: real time    1.2153
    MIXING:  cpu time    0.0064: real time    0.0065
    --------------------------------------------
      LOOP:  cpu time   31.3197: real time   31.4120

 eigenvalue-minimisations  :  6720
 total energy-change (2. order) :-0.9569634E-02  (-0.4239764E-02)
 number of electron    1213.9999987 magnetization      -0.0000000
 augmentation part       73.9951640 magnetization      -0.0000000

 Broyden mixing:
  rms(total) = 0.27457E-01    rms(broyden)= 0.27439E-01
  rms(prec ) = 0.27858E-01
  weight for this iteration     100.00

 eigenvalues of (default mixing * dielectric matrix)
  average eigenvalue GAMMA=   0.6922
  0.6922  0.6922

 Free energy of the ion-electron system (eV)
  ---------------------------------------------------
  alpha Z        PSCENC =      2166.38705829
  Ewald energy   TEWEN  =    383078.62824726
  -Hartree energ DENC   =   -480256.71151914
  -exchange      EXHF   =         0.00000000
  -V(xc)+E(xc)   XCENC  =      5337.54838902
  PAW double counting   =    130172.04161720  -129492.76864084
  entropy T*S    EENTRO =        -0.00000000
  eigenvalues    EBANDS =    -18739.97697736
  atomic energy  EATOM  =    106355.26625530
  Solvation  Ediel_sol  =         0.00000000
  ---------------------------------------------------
  free energy    TOTEN  =     -1379.58557027 eV

  energy without entropy =    -1379.58557027  energy(sigma->0) =    -1379.58557027


--------------------------------------------------------------------------------------------------------




--------------------------------------- Iteration      1(   4)  ---------------------------------------


    POTLOK:  cpu time    0.2120: real time    0.2141
    SETDIJ:  cpu time    0.0216: real time    0.0217
     EDDAV:  cpu time   26.1261: real time   26.2030
       DOS:  cpu time    0.0009: real time    0.0009
    CHARGE:  cpu time    1.2089: real time    1.2117
    MIXING:  cpu time    0.0070: real time    0.0070
    --------------------------------------------
      LOOP:  cpu time   27.5765: real time   27.6584

 eigenvalue-minimisations  :  5600
 total energy-change (2. order) :-0.5467102E-04  (-0.2103406E-03)
 number of electron    1213.9999987 magnetization      -0.0000000
 augmentation part       73.9919872 magnetization      -0.0000000

 Broyden mixing:
  rms(total) = 0.22159E-01    rms(broyden)= 0.22158E-01
  rms(prec ) = 0.22453E-01
  weight for this iteration     100.00

 eigenvalues of (default mixing * dielectric matrix)
  average eigenvalue GAMMA=   0.6837
  0.7696  0.7696  0.5119

 Free energy of the ion-electron system (eV)
  ---------------------------------------------------
  alpha Z        PSCENC =      2166.38705829
  Ewald energy   TEWEN  =    383078.62824726
  -Hartree energ DENC   =   -480257.36283908
  -exchange      EXHF   =         0.00000000
  -V(xc)+E(xc)   XCENC  =      5337.61559817
  PAW double counting   =    130201.22581400  -129521.90493365
  entropy T*S    EENTRO =        -0.00000000
  eigenvalues    EBANDS =    -18739.44082523
  atomic energy  EATOM  =    106355.26625530
  Solvation  Ediel_sol  =         0.00000000
  ---------------------------------------------------
  free energy    TOTEN  =     -1379.58562494 eV

  energy without entropy =    -1379.58562494  energy(sigma->0) =    -1379.58562494


--------------------------------------------------------------------------------------------------------




--------------------------------------- Iteration      1(   5)  ---------------------------------------


    POTLOK:  cpu time    0.2118: real time    0.2146
    SETDIJ:  cpu time    0.0216: real time    0.0216
     EDDAV:  cpu time   29.4319: real time   29.5152
       DOS:  cpu time    0.0005: real time    0.0005
    CHARGE:  cpu time    1.1959: real time    1.1988
    MIXING:  cpu time    0.0073: real time    0.0073
    --------------------------------------------
      LOOP:  cpu time   30.8690: real time   30.9580

 eigenvalue-minimisations  :  6592
 total energy-change (2. order) :-0.7305862E-05  (-0.1893171E-04)
 number of electron    1213.9999987 magnetization      -0.0000000
 augmentation part       73.9976704 magnetization      -0.0000000

 Broyden mixing:
  rms(total) = 0.18685E-01    rms(broyden)= 0.18685E-01
  rms(prec ) = 0.18935E-01
  weight for this iteration     100.00

 eigenvalues of (default mixing * dielectric matrix)
  average eigenvalue GAMMA=   0.7257
  0.9058  0.9058  0.5455  0.5455

 Free energy of the ion-electron system (eV)
  ---------------------------------------------------
  alpha Z        PSCENC =      2166.38705829
  Ewald energy   TEWEN  =    383078.62824726
  -Hartree energ DENC   =   -480257.37776632
  -exchange      EXHF   =         0.00000000
  -V(xc)+E(xc)   XCENC  =      5337.61932189
  PAW double counting   =    130218.75252801  -129539.39714104
  entropy T*S    EENTRO =        -0.00000000
  eigenvalues    EBANDS =    -18739.46413564
  atomic energy  EATOM  =    106355.26625530
  Solvation  Ediel_sol  =         0.00000000
  ---------------------------------------------------
  free energy    TOTEN  =     -1379.58563225 eV

  energy without entropy =    -1379.58563225  energy(sigma->0) =    -1379.58563225


--------------------------------------------------------------------------------------------------------




--------------------------------------- Iteration      1(   6)  ---------------------------------------


    POTLOK:  cpu time    0.2152: real time    0.2180
    SETDIJ:  cpu time    0.0214: real time    0.0215
     EDDAV:  cpu time   29.6814: real time   29.7693
       DOS:  cpu time    0.0010: real time    0.0007
    CHARGE:  cpu time    1.2110: real time    1.2142
    MIXING:  cpu time    0.0070: real time    0.0070
    --------------------------------------------
      LOOP:  cpu time   31.1370: real time   31.2307

 eigenvalue-minimisations  :  6656
 total energy-change (2. order) :-0.1177113E-04  (-0.2201569E-05)
 number of electron    1213.9999987 magnetization      -0.0000000
 augmentation part       73.9991382 magnetization      -0.0000000

 Broyden mixing:
  rms(total) = 0.16110E-01    rms(broyden)= 0.16110E-01
  rms(prec ) = 0.16338E-01
  weight for this iteration     100.00

 eigenvalues of (default mixing * dielectric matrix)
  average eigenvalue GAMMA=   0.8021
  1.1353  1.1353  0.5243  0.6077  0.6077

 Free energy of the ion-electron system (eV)
  ---------------------------------------------------
  alpha Z        PSCENC =      2166.38705829
  Ewald energy   TEWEN  =    383078.62824726
  -Hartree energ DENC   =   -480257.44997586
  -exchange      EXHF   =         0.00000000
  -V(xc)+E(xc)   XCENC  =      5337.62717167
  PAW double counting   =    130233.18689347  -129553.82030677
  entropy T*S    EENTRO =        -0.00000000
  eigenvalues    EBANDS =    -18739.41098738
  atomic energy  EATOM  =    106355.26625530
  Solvation  Ediel_sol  =         0.00000000
  ---------------------------------------------------
  free energy    TOTEN  =     -1379.58564402 eV

  energy without entropy =    -1379.58564402  energy(sigma->0) =    -1379.58564402


--------------------------------------------------------------------------------------------------------




--------------------------------------- Iteration      1(   7)  ---------------------------------------


    POTLOK:  cpu time    0.2123: real time    0.2161
    SETDIJ:  cpu time    0.0216: real time    0.0216
     EDDAV:  cpu time   29.2938: real time   29.3863
       DOS:  cpu time    0.0006: real time    0.0006
    CHARGE:  cpu time    1.1949: real time    1.1999
    MIXING:  cpu time    0.0075: real time    0.0075
    --------------------------------------------
      LOOP:  cpu time   30.7308: real time   30.8321

 eigenvalue-minimisations  :  6528
 total energy-change (2. order) :-0.6362679E-05  (-0.2386885E-05)
 number of electron    1213.9999987 magnetization      -0.0000000
 augmentation part       74.0004281 magnetization      -0.0000000

 Broyden mixing:
  rms(total) = 0.12776E-01    rms(broyden)= 0.12776E-01
  rms(prec ) = 0.12955E-01
  weight for this iteration     100.00

 eigenvalues of (default mixing * dielectric matrix)
  average eigenvalue GAMMA=   0.8597
  1.3450  1.3450  0.6848  0.6848  0.5491  0.5491

 Free energy of the ion-electron system (eV)
  ---------------------------------------------------
  alpha Z        PSCENC =      2166.38705829
  Ewald energy   TEWEN  =    383078.62824726
  -Hartree energ DENC   =   -480257.44047159
  -exchange      EXHF   =         0.00000000
  -V(xc)+E(xc)   XCENC  =      5337.63240302
  PAW double counting   =    130250.89028656  -129571.51107986
  entropy T*S    EENTRO =        -0.00000000
  eigenvalues    EBANDS =    -18739.43834936
  atomic energy  EATOM  =    106355.26625530
  Solvation  Ediel_sol  =         0.00000000
  ---------------------------------------------------
  free energy    TOTEN  =     -1379.58565038 eV

  energy without entropy =    -1379.58565038  energy(sigma->0) =    -1379.58565038


--------------------------------------------------------------------------------------------------------




--------------------------------------- Iteration      1(   8)  ---------------------------------------


    POTLOK:  cpu time    0.2122: real time    0.2153
    SETDIJ:  cpu time    0.0215: real time    0.0215
     EDDAV:  cpu time   28.1958: real time   28.2811
       DOS:  cpu time    0.0006: real time    0.0006
    CHARGE:  cpu time    1.2080: real time    1.2108
    MIXING:  cpu time    0.0080: real time    0.0080
    --------------------------------------------
      LOOP:  cpu time   29.6460: real time   29.7373

 eigenvalue-minimisations  :  6208
 total energy-change (2. order) :-0.4716028E-05  (-0.1729880E-05)
 number of electron    1213.9999987 magnetization       0.0000000
 augmentation part       74.0021093 magnetization      -0.0000000

 Broyden mixing:
  rms(total) = 0.10444E-01    rms(broyden)= 0.10444E-01
  rms(prec ) = 0.10583E-01
  weight for this iteration     100.00

 eigenvalues of (default mixing * dielectric matrix)
  average eigenvalue GAMMA=   0.9059
  1.5614  1.5614  0.7620  0.7620  0.5308  0.5819  0.5819

 Free energy of the ion-electron system (eV)
  ---------------------------------------------------
  alpha Z        PSCENC =      2166.38705829
  Ewald energy   TEWEN  =    383078.62824726
  -Hartree energ DENC   =   -480257.43252820
  -exchange      EXHF   =         0.00000000
  -V(xc)+E(xc)   XCENC  =      5337.63548799
  PAW double counting   =    130263.44250902  -129584.05350154
  entropy T*S    EENTRO =        -0.00000000
  eigenvalues    EBANDS =    -18739.45918322
  atomic energy  EATOM  =    106355.26625530
  Solvation  Ediel_sol  =         0.00000000
  ---------------------------------------------------
  free energy    TOTEN  =     -1379.58565510 eV

  energy without entropy =    -1379.58565510  energy(sigma->0) =    -1379.58565510


--------------------------------------------------------------------------------------------------------




--------------------------------------- Iteration      1(   9)  ---------------------------------------


    POTLOK:  cpu time    0.2124: real time    0.2132
    SETDIJ:  cpu time    0.0215: real time    0.0216
     EDDAV:  cpu time   20.3553: real time   20.4167
       DOS:  cpu time    0.0005: real time    0.0005
    CHARGE:  cpu time    1.2091: real time    1.2120
    MIXING:  cpu time    0.0089: real time    0.0089
    --------------------------------------------
      LOOP:  cpu time   21.8078: real time   21.8730

 eigenvalue-minimisations  :  4000
 total energy-change (2. order) :-0.3739857E-05  (-0.3960867E-06)
 number of electron    1213.9999987 magnetization      -0.0000000
 augmentation part       74.0029486 magnetization      -0.0000000

 Broyden mixing:
  rms(total) = 0.90341E-02    rms(broyden)= 0.90341E-02
  rms(prec ) = 0.91568E-02
  weight for this iteration     100.00

 eigenvalues of (default mixing * dielectric matrix)
  average eigenvalue GAMMA=   1.0511
  2.0526  2.0526  0.9090  0.9090  0.6621  0.6621  0.5806  0.5806

 Free energy of the ion-electron system (eV)
  ---------------------------------------------------
  alpha Z        PSCENC =      2166.38705829
  Ewald energy   TEWEN  =    383078.62824726
  -Hartree energ DENC   =   -480257.41812171
  -exchange      EXHF   =         0.00000000
  -V(xc)+E(xc)   XCENC  =      5337.63662842
  PAW double counting   =    130271.10225023  -129591.71148422
  entropy T*S    EENTRO =        -0.00000000
  eigenvalues    EBANDS =    -18739.47649240
  atomic energy  EATOM  =    106355.26625530
  Solvation  Ediel_sol  =         0.00000000
  ---------------------------------------------------
  free energy    TOTEN  =     -1379.58565884 eV

  energy without entropy =    -1379.58565884  energy(sigma->0) =    -1379.58565884


--------------------------------------------------------------------------------------------------------




--------------------------------------- Iteration      1(  10)  ---------------------------------------


    POTLOK:  cpu time    0.2137: real time    0.2144
    SETDIJ:  cpu time    0.0216: real time    0.0216
     EDDAV:  cpu time   28.7565: real time   28.8641
       DOS:  cpu time    0.0006: real time    0.0006
    CHARGE:  cpu time    1.2102: real time    1.2131
    MIXING:  cpu time    0.0083: real time    0.0083
    --------------------------------------------
      LOOP:  cpu time   30.2110: real time   30.3222

 eigenvalue-minimisations  :  6368
 total energy-change (2. order) :-0.4524452E-05  (-0.2404429E-05)
 number of electron    1213.9999987 magnetization      -0.0000000
 augmentation part       74.0042306 magnetization      -0.0000000

 Broyden mixing:
  rms(total) = 0.54329E-02    rms(broyden)= 0.54328E-02
  rms(prec ) = 0.55097E-02
  weight for this iteration     100.00

 eigenvalues of (default mixing * dielectric matrix)
[...]
   -.240E+03 -.177E+03 -.161E+04   0.252E+03 0.186E+03 0.160E+04   -.119E+02 -.870E+01 0.615E+01   0.450E-03 0.107E-03 -.431E-03
   -.183E+03 0.281E+03 -.173E+04   0.192E+03 -.295E+03 0.174E+04   -.836E+01 0.140E+02 -.127E+02   0.179E-03 0.340E-03 -.524E-03
   -.325E+02 -.406E+02 -.293E+03   0.323E+02 0.417E+02 0.295E+03   0.191E+00 -.101E+01 -.201E+01   0.117E-03 0.236E-04 -.163E-03
   0.418E+02 -.340E+02 -.190E+03   -.433E+02 0.372E+02 0.194E+03   0.149E+01 -.318E+01 -.420E+01   -.101E-04 -.487E-05 0.131E-04
   -.504E+02 0.235E+02 -.219E+03   0.542E+02 -.244E+02 0.222E+03   -.384E+01 0.952E+00 -.388E+01   0.108E-04 -.132E-04 0.460E-05
   0.113E+01 0.614E+02 -.148E+03   0.143E+00 -.648E+02 0.144E+03   -.127E+01 0.343E+01 0.410E+01   -.697E-05 -.204E-04 -.104E-04
   -.506E+01 0.621E+02 -.200E+03   0.618E+01 -.656E+02 0.196E+03   -.110E+01 0.350E+01 0.342E+01   0.103E-04 -.216E-04 -.128E-04
   0.654E+02 0.317E+02 -.157E+03   -.704E+02 -.332E+02 0.158E+03   0.503E+01 0.144E+01 -.177E+01   -.221E-04 -.188E-04 0.669E-05
   -.275E+02 0.325E+02 -.167E+03   0.310E+02 -.335E+02 0.171E+03   -.349E+01 0.104E+01 -.411E+01   0.315E-05 -.134E-04 0.176E-04
   0.431E+02 -.461E+02 -.228E+03   -.452E+02 0.488E+02 0.232E+03   0.213E+01 -.269E+01 -.418E+01   0.676E-06 0.101E-04 -.474E-05
   0.746E+02 -.572E+01 -.162E+03   -.784E+02 0.663E+01 0.158E+03   0.376E+01 -.923E+00 0.387E+01   -.235E-04 -.531E-05 -.212E-04
   0.748E+02 -.301E+02 -.199E+03   -.784E+02 0.311E+02 0.195E+03   0.363E+01 -.951E+00 0.389E+01   -.174E-04 0.126E-04 -.323E-04
   -.619E+02 0.249E+01 -.248E+03   0.654E+02 -.379E+01 0.252E+03   -.340E+01 0.130E+01 -.397E+01   0.365E-04 0.175E-04 -.316E-04
   -.559E+02 -.564E+02 -.227E+03   0.606E+02 0.592E+02 0.226E+03   -.470E+01 -.273E+01 0.955E+00   0.500E-04 0.250E-04 -.597E-04
   0.187E+02 -.496E+02 -.236E+03   -.206E+02 0.515E+02 0.240E+03   0.195E+01 -.193E+01 -.466E+01   0.244E-04 0.242E-04 -.262E-04
   0.438E+02 -.499E+02 -.215E+03   -.473E+02 0.513E+02 0.211E+03   0.354E+01 -.142E+01 0.390E+01   0.312E-04 0.361E-04 -.401E-04
   0.656E+02 0.135E+03 -.646E+03   -.656E+02 -.135E+03 0.647E+03   0.479E-01 0.202E+00 -.793E-01   -.222E-04 -.520E-04 0.141E-04
   -.971E+01 0.722E+02 -.820E+03   0.863E+01 -.715E+02 0.822E+03   0.107E+01 -.636E+00 -.200E+01   0.231E-05 -.556E-04 0.209E-05
   0.142E+03 0.733E+01 -.714E+03   -.142E+03 -.766E+01 0.714E+03   0.570E+00 0.313E+00 -.328E+00   -.664E-05 -.400E-04 -.360E-05
   0.112E+03 -.812E+02 -.877E+03   -.112E+03 0.824E+02 0.878E+03   -.357E+00 -.117E+01 -.748E+00   0.241E-04 0.494E-04 -.393E-04
   -.880E+02 -.659E+02 -.943E+03   0.909E+02 0.646E+02 0.939E+03   -.283E+01 0.133E+01 0.386E+01   0.186E-03 0.134E-03 -.158E-03
   -.858E+01 -.183E+03 -.912E+03   0.854E+01 0.183E+03 0.913E+03   0.568E-01 -.680E-02 -.411E+00   0.174E-03 0.930E-04 -.180E-03
 -----------------------------------------------------------------------------------------------
   0.312E+02 0.226E+02 0.743E+02   -.174E-12 0.853E-13 -.142E-10   -.312E+02 -.229E+02 -.744E+02   0.269E-02 0.179E-02 0.171E-01
 
 
 POSITION                                       TOTAL-FORCE (eV/Angst)
 -----------------------------------------------------------------------------------
      0.99046      3.89727      0.91670        -1.497764     -1.871256     -0.673237
      4.22806      9.97101      0.91670        -1.493319     -1.882449     -0.745515
      8.54576      3.89727      0.91670        -1.343951     -1.928712     -0.759895
     11.78336      9.97101      0.91670        -1.353757     -1.831425     -0.716588
      0.16045     10.12553      1.16818        -0.276355      1.652832      0.414952
      4.47815      4.05179      1.16818        -0.207095      1.713616      0.195810
      7.71575     10.12553      1.16818        -0.091822      1.775441      0.173879
     12.03345      4.05179      1.16818        -0.157350      1.828638      0.583498
      3.52055      0.82336      1.36715        -0.862097     -0.875063      1.558912
      6.75815      6.89709      1.36715        -0.832793     -0.882488      1.547749
     11.07585      0.82336      1.36715        -0.762539     -0.833085      1.749710
     14.31345      6.89709      1.36715        -0.983110     -0.953619      1.791362
      2.69053      7.05173      1.61862         1.452684      0.460150     -2.490764
      7.00822      0.97799      1.61862         1.593375      0.431853     -2.482955
     10.24583      7.05173      1.61862         1.751360      0.405159     -2.421740
     14.56352      0.97799      1.61862         1.488710      0.500275     -2.426672
      0.52744     11.93501      4.09698         0.002636      0.001995     -0.001321
      4.85532      5.87455      4.09992        -0.002733      0.000703     -0.002323
      8.11682     11.95852      4.10844        -0.004767      0.003177      0.006126
     12.40255      5.86920      4.15445         0.000093      0.000151      0.000195
      0.80600      6.00885      4.37365        -0.002492     -0.002614      0.008767
      4.04046     12.08715      4.36621        -0.000408      0.001186     -0.000710
      8.36242      5.98294      4.36336        -0.003379     -0.000671     -0.000444
     11.58671     12.09135      4.38794         0.002869      0.002137      0.001358
     -0.18957      2.79655      4.58860         0.004014      0.000377      0.000853
      3.02611      8.86628      4.58446        -0.004179     -0.002855      0.001836
      7.36293      2.77765      4.57435        -0.003523     -0.004244      0.001675
     10.65470      8.86364      4.58404         0.002224      0.000657     -0.002607
      3.34878      2.93605      4.80606         0.009858     -0.001993      0.009401
      6.55896      9.02627      4.78232        -0.002629     -0.000479     -0.003295
     10.92653      2.98245      4.89072        -0.005674      0.002653     -0.004877
     14.12505      8.98923      4.85932         0.005354     -0.000100      0.007013
      1.14537      7.79611      7.52518        -0.003004     -0.001733      0.001520
      5.44134      1.69447      7.49561         0.006532      0.002186      0.012348
      8.68054      7.86614      7.28970         0.010377     -0.000476     -0.005343
     13.03836      1.68066      7.52994         0.001314     -0.003991     -0.000889
      1.46585      1.95842      7.48371        -0.001178      0.006741     -0.000079
      4.67986      8.01214      7.49003         0.000508     -0.003086     -0.007132
      8.96440      1.91966      7.53358         0.001111      0.000800     -0.000502
     12.22684      8.07075      7.70092        -0.000996     -0.001620     -0.010322
     -0.56870     10.80396      7.77482         0.003354     -0.000591     -0.001775
      3.71978      4.72006      7.79238         0.000416     -0.000041     -0.000538
      6.94025     10.77869      7.78029         0.001230     -0.006145     -0.002145
     11.42105      4.65607      7.99434         0.009158     -0.004793     -0.004720
     -0.27780      4.94945      8.05223         0.005544      0.001651      0.000742
      2.91262     11.01518      8.05655         0.003843     -0.001214      0.002200
      7.19508      4.84837      8.00584         0.002226      0.004483     -0.004815
     10.47862     11.01632      8.08985         0.005966     -0.001648     -0.004078
      9.93500      6.68617     10.00542        -0.006994     -0.017025      0.009976
      0.18233      2.09605      0.00000         0.270404      0.969825      1.255608
      3.41993      8.16979      0.00000         0.291747      0.998715      1.257896
      7.73763      2.09605      0.00000         0.255845      0.979079      1.271375
     10.97523      8.16979      0.00000         0.236292      0.982345      1.272551
      2.77584      5.24249      0.37900        -0.002873     -0.928119      0.574830
      6.01345     11.31622      0.37900        -0.043452     -0.929119      0.577920
     10.33114      5.24249      0.37900        -0.109902     -0.925768      0.564050
     13.56875     11.31622      0.37900        -0.042740     -0.928478      0.560316
      2.16153     10.82255      0.59691         0.413004      1.207092     -0.192866
      6.47922      4.74881      0.59691         0.393494      1.221740     -0.195413
      9.71683     10.82255      0.59691         0.343199      1.181839     -0.202947
     14.03452      4.74881      0.59691         0.396489      1.174157     -0.226358
      2.73983      2.74654      1.05910         1.189058     -1.038075     -0.444577
      5.97744      8.82028      1.05910         1.160658     -1.055061     -0.413740
     10.29513      2.74654      1.05910         1.115514     -1.024267     -0.468688
     13.53273      8.82028      1.05910         1.138669     -1.020399     -0.475189
      0.94100      8.20246      1.47622        -1.101948     -0.301943     -0.903336
      5.25870      2.12872      1.47622        -1.120391     -0.308297     -0.891049
      8.49630      8.20246      1.47622        -1.194354     -0.317773     -0.895258
     12.81400      2.12872      1.47622        -1.151923     -0.306517     -0.906935
      1.51931      0.12646      1.93841         0.324957     -0.091756      0.224324
      4.75691      6.20019      1.93841         0.402536     -0.019157      0.214004
      9.07461      0.12646      1.93841         0.401361     -0.033320      0.255630
     12.31221      6.20019      1.93841         0.332240     -0.087639      0.357089
      0.90515      5.70640      2.15632        -0.384309      0.331164      0.101335
      4.14276     11.78014      2.15632        -0.366020      0.319383      0.142592
      8.46045      5.70640      2.15632        -0.425269      0.301278      0.181640
     11.69806     11.78014      2.15632        -0.428777      0.320431      0.193508
      0.26091      2.77910      2.53532         0.225019      0.385968      0.500747
      3.49852      8.85284      2.53532         0.226639      0.419899      0.595044
      7.81621      2.77910      2.53532         0.232077      0.395026      0.475663
     11.05382      8.85284      2.53532         0.252570      0.397900      0.553608
     -0.22334     10.11437      3.20470        -0.001335      0.008622     -0.001529
      4.10923      4.05538      3.19717        -0.001267     -0.000226      0.000918
      7.35058     10.13127      3.19675        -0.006183     -0.002578     -0.001965
     11.65553      4.04480      3.21530         0.006690     -0.003912     -0.002848
      3.39367      1.13385      3.50288        -0.004971     -0.002114     -0.003395
      6.63237      7.20940      3.51411        -0.002111      0.000015      0.001234
     10.95154      1.13986      3.52374         0.001605      0.001071      0.011027
     14.18830      7.20847      3.52303         0.007423     -0.001365     -0.003158
      2.80371      6.70874      3.84553         0.001967     -0.004897     -0.007909
      7.13751      0.61921      3.85112         0.002468      0.002476      0.003214
     10.35419      6.70619      3.85465         0.002083     -0.002389     -0.003911
     14.66653      0.64076      3.85589        -0.000892     -0.000954     -0.003095
      2.27588     10.81437      4.33829         0.003695      0.000748     -0.000019
      6.59221      4.72879      4.32088         0.013892      0.002707     -0.007334
      9.83679     10.79765      4.34017        -0.008871     -0.000354     -0.001559
     14.15851      4.73798      4.34567        -0.005750      0.006922      0.007128
      1.59401      4.06814      4.61439         0.008653      0.002162     -0.001630
      4.81484     10.14469      4.63264         0.006432      0.000485     -0.004631
      9.12732      4.07040      4.66162        -0.002990     -0.004143      0.002375
     12.37740     10.16127      4.65419        -0.001732      0.003050     -0.002523
      1.04182      8.15409      5.14579        -0.005005     -0.006833     -0.000319
      5.35680      2.05656      5.10123         0.003063     -0.003107      0.002506
      8.60797      8.14828      5.11932        -0.003305      0.005507      0.003531
     12.91733      2.06471      5.19121         0.000517      0.005285     -0.000917
      1.59550      1.57885      5.36270        -0.001370      0.004761      0.002620
      4.80634      7.66206      5.36512         0.000890     -0.006508     -0.004844
      9.14586      1.59530      5.39994        -0.005541     -0.006588      0.010252
     12.36813      7.67720      5.40297         0.011605     -0.012955      0.011316
     -0.26513     10.85201      5.74815         0.005487      0.000155      0.003941
      4.05816      4.80340      5.76366        -0.003990      0.003585     -0.004891
      7.29879     10.85124      5.75353         0.001528      0.001563     -0.005655
     11.62121      4.78485      5.79005        -0.002098     -0.007715     -0.011612
      0.47442      5.98565      6.43610         0.006656      0.003453      0.001234
      3.67465     12.05035      6.43128         0.004843      0.006069     -0.009945
      7.92721      5.98998      6.43492         0.002652      0.004623     -0.001198
     11.14686     12.06869      6.44544         0.024242      0.010329     -0.002934
      2.97112      9.11399      6.77020         0.005383      0.002764     -0.006454
      7.23015      3.03245      6.73053        -0.001783     -0.006602     -0.006234
     10.49883      9.07711      6.79360         0.010190      0.023679     -0.004367
     -0.20107      3.05984      6.73833         0.004858     -0.004905     -0.002066
      3.46323      2.59762      6.96943         0.002429      0.014389     -0.003456
      6.67428      8.64833      6.94675        -0.000860     -0.001167     -0.004046
     10.97990      2.63491      7.11372        -0.002542     -0.007591      0.005661
     14.24649      8.64382      7.04551         0.001739      0.002828     -0.004264
      2.99211      6.72988      7.85664        -0.009022      0.008750      0.002203
      7.26475      0.63377      7.82870        -0.002100      0.001876     -0.001812
     10.41010      6.65293      7.82806        -0.001701      0.005492      0.006374
     14.87370      0.68449      7.87238        -0.004832     -0.016391     -0.011911
      2.20162      0.04912      7.92352         0.009400     -0.003763     -0.001618
      5.44278      6.13361      8.03362         0.001012     -0.003963     -0.013096
      9.69683      0.00119      8.02543        -0.020507     -0.015080      0.025457
     12.99372      6.10193      7.92321        -0.000929      0.010429     -0.029522
      1.72111      3.90429      8.42514        -0.000284      0.001323      0.003108
      4.92563      9.94778      8.42301         0.001917      0.002984      0.000651
      8.91514      3.74145      8.56312         0.008739      0.010277     -0.003459
     12.53692     10.17286      8.23188        -0.002555      0.001753      0.001647
      1.12501      9.71751      8.54073         0.006096     -0.009240      0.001606
      5.40647      3.62704      8.51392         0.004035      0.004212     -0.000559
      8.59429      9.63599      8.49352         0.007158     -0.003891      0.006413
     13.14255      3.56884      8.52318        -0.002033     -0.001180      0.004017
      0.41818      6.60253      8.98543         0.002833      0.003250     -0.000859
      4.70891      0.52350      8.97716        -0.000951     -0.009649      0.002946
      8.08614      6.58737      9.04918        -0.008891      0.003062     -0.005629
     12.25354      0.52128      8.99787        -0.000622      0.003883     -0.006629
     11.33024      8.24123      9.66497        -0.006350      0.000621     -0.013305
     10.99341      5.07803     10.00314        -0.008990     -0.024984     -0.018141
     10.84978      8.37916     10.72899         0.031443      0.006400     -0.026613
      6.85809      6.30931     13.94559         0.005012      0.003572     -0.019456
      9.28826      5.94732     13.37438         0.007228     -0.003788      0.003136
      7.36200      3.52487     12.70016         0.013361      0.007063     -0.011322
      8.80589      5.44201     11.76817         0.021593      0.006662     -0.004627
      6.09959      3.92360     13.88025         0.016789     -0.000721     -0.009247
      7.80810      4.00439     14.35213         0.013880      0.002511     -0.015764
      8.09111      8.16700     13.09293        -0.032110      0.005011      0.019258
      6.39955      5.84895     12.30862         0.018706     -0.001833     -0.007555
      7.80570      7.80669     11.40966         0.030495      0.003884     -0.011694
     10.59356      7.99663     12.74032         0.022985     -0.001460      0.010767
     10.67483     10.32944     11.68059         0.023765     -0.002715      0.008258
      9.33048     10.18268     12.83389         0.023004      0.016897     -0.013363
      9.01862     10.08065     11.08889         0.023306     -0.004096     -0.004855
      7.10409      4.19990     13.52978         0.005226     -0.000810     -0.025644
      8.52326      6.13176     12.60257         0.001265      0.020049      0.000127
      7.14766      5.66483     13.09840         0.012740     -0.011736     -0.036186
      8.52822      7.62752     12.23276         0.003694     -0.006834     -0.015631
      9.90847      8.26773     11.91896         0.004008      0.004706      0.029371
      9.73231      9.79786     11.88057         0.013128      0.003522      0.016933
 -----------------------------------------------------------------------------------
    total drift:                                0.016521     -0.248011     -0.151362


--------------------------------------------------------------------------------------------------------



  FREE ENERGIE OF THE ION-ELECTRON SYSTEM (eV)
  ---------------------------------------------------
  free  energy   TOTEN  =     -1398.84341975 eV

  energy  without entropy=    -1398.84341975  energy(sigma->0) =    -1398.84341975
 


--------------------------------------------------------------------------------------------------------


    POTLOK:  cpu time    0.2350: real time    0.2356


--------------------------------------------------------------------------------------------------------


 Dimer: Init Mode:
 Dimer: MODECAR found
 Dimer: -----------------
 Dimer: Itr    1 Rot    0

 Dimer: Central Point
 Dimer: F0      0.161708

 Dimer: Projection
 Dimer: N*F0 -3.027165492046954E-002
 Dimer: F0sq  2.614940612948162E-002
 Dimer: Feffsq   9.163730916239872E-004
 
 stress matrix after NEB project (eV)
    -53.09156    -24.34183      3.59106
    -24.34183    -72.00974      1.14073
      3.59106      1.14073    -11.33813
  FORCES: max atom, RMS     0.041688    0.012513
  FORCE total and by dimension    0.161708    0.036186
  Stress total and by dimension   96.675298   72.009738
 OPT: skip step - force has converged
 writing wavefunctions
     LOOP+:  cpu time  403.6953: real time  405.5468
    4ORBIT:  cpu time    0.0000: real time    0.0000

 total amount of memory used by VASP MPI-rank0   175092. kBytes
=======================================================================

   base      :      30000. kBytes
   nonlr-proj:      11804. kBytes
   fftplans  :       9317. kBytes
   grid      :      26149. kBytes
   one-center:        870. kBytes
   wavefun   :      96952. kBytes
 
  
  
 General timing and accounting informations for this job:
 ========================================================
  
                  Total CPU time used (sec):      433.175
                            User time (sec):      407.971
                          System time (sec):       25.204
                         Elapsed time (sec):      435.412
  
                   Maximum memory used (kb):      440748.
                   Average memory used (kb):           0.
  
                          Minor page faults:        92660
                          Major page faults:            0
                 Voluntary context switches:         1704
