       N       E                     dE             d eps       ncg     rms          rms(c)
DAV:   1    -0.132900462541E+04   -0.13290E+04   -0.13115E+00  6304   0.976E-01    0.954E-01
DAV:   2    -0.133075929604E+04   -0.17547E+01   -0.11698E+00  6144   0.948E-01    0.406E-01
DAV:   3    -0.133076919148E+04   -0.98954E-02   -0.41136E-02  6720   0.226E-01    0.276E-01
DAV:   4    -0.133076922728E+04   -0.35800E-04   -0.20908E-03  5664   0.567E-02    0.224E-01
DAV:   5    -0.133076923425E+04   -0.69715E-05   -0.20498E-04  6720   0.183E-02    0.188E-01
DAV:   6    -0.133076924699E+04   -0.12742E-04   -0.23760E-05  6848   0.722E-03    0.163E-01
DAV:   7    -0.133076925511E+04   -0.81194E-05   -0.23287E-05  6528   0.810E-03    0.130E-01
DAV:   8    -0.133076926097E+04   -0.58582E-05   -0.16529E-05  6080   0.639E-03    0.107E-01
DAV:   9    -0.133076926567E+04   -0.47009E-05   -0.44593E-06  4192   0.340E-03    0.916E-02
DAV:  10    -0.133076927158E+04   -0.59137E-05   -0.25150E-05  6432   0.800E-03    0.542E-02
DAV:  11    -0.133076927613E+04   -0.45471E-05   -0.30273E-05  6720   0.886E-03    0.182E-02
DAV:  12    -0.133076927718E+04   -0.10533E-05   -0.36695E-06  4096   0.274E-03    0.111E-02
DAV:  13    -0.133076927739E+04   -0.20419E-06   -0.92986E-07  3136   0.149E-03
   1 F= -.13497602E+04 E0= -.13497602E+04  d E =-.459487E-20  mag=     0.0000
