 vasp.5.4.4.18Apr17-6-g9f103f2a35 (build Oct 13 2017 11:24:24) complex          
  
 executed on             LinuxIFC date 2021.10.27  05:41:43
 running on   48 total cores
 distrk:  each k-point on   48 cores,    1 groups
 distr:  one band on NCORES_PER_BAND=   6 cores,    8 groups


--------------------------------------------------------------------------------------------------------


 INCAR:
 POTCAR:    PAW_PBE Zr_sv 04Jan2005               
 POTCAR:    PAW_PBE O 08Apr2002                   
 POTCAR:    PAW_PBE H 15Jun2001                   
 POTCAR:    PAW_PBE C 08Apr2002                   
 POTCAR:    PAW_PBE Zr_sv 04Jan2005               
   VRHFIN =Zr: 4s4p5s4d                                                         
   LEXCH  = PE                                                                  
   EATOM  =  1284.2219 eV,   94.3876 Ry                                         
                                                                                
   TITEL  = PAW_PBE Zr_sv 04Jan2005                                             
   LULTRA =        F    use ultrasoft PP ?                                      
   IUNSCR =        1    unscreen: 0-lin 1-nonlin 2-no                           
   RPACOR =    2.200    partial core radius                                     
   POMASS =   91.224; ZVAL   =   12.000    mass and valenz                      
   RCORE  =    2.500    outmost cutoff radius                                   
   RWIGS  =    3.070; RWIGS  =    1.625    wigner-seitz radius (au A)           
   ENMAX  =  229.898; ENMIN  =  172.424 eV                                      
   ICORE  =        3    local potential                                         
   LCOR   =        T    correct aug charges                                     
   LPAW   =        T    paw PP                                                  
   EAUG   =  461.257                                                            
   DEXC   =    0.000                                                            
   RMAX   =    2.561    core radius for proj-oper                               
   RAUG   =    1.300    factor for augmentation sphere                          
   RDEP   =    2.597    radius for radial grids                                 
   RDEPT  =    2.007    core radius for aug-charge                              
                                                                                
   Atomic configuration                                                         
   11 entries                                                                   
     n  l   j            E        occ.                                          
     1  0  0.50    -17820.0161   2.0000                                         
     2  0  0.50     -2467.0882   2.0000                                         
     2  1  1.50     -2199.6095   6.0000                                         
     3  0  0.50      -402.4863   2.0000                                         
     3  1  1.50      -315.3675   6.0000                                         
     3  2  2.50      -172.4472  10.0000                                         
     4  0  0.50       -52.4146   2.0000                                         
     5  0  0.50        -3.8421   1.0000                                         
     4  1  1.50       -30.5054   6.0000                                         
     4  2  2.50        -2.3341   3.0000                                         
     4  3  2.50        -1.3606   0.0000                                         
   Description                                                                  
     l       E           TYP  RCUT    TYP  RCUT                                 
     0    -52.4145962     23  2.200                                             
     0     -3.8421270     23  2.500                                             
     1    -30.5053914     23  2.200                                             
     1     20.4087390     23  2.200                                             
     2     -2.3340816     23  2.500                                             
     2     -0.6120942     23  2.500                                             
     3     -4.0817478     23  2.500                                             
  local pseudopotential read in
  partial core-charges read in
  partial kinetic energy density read in
  atomic valenz-charges read in
  non local Contribution for L=           0  read in
    real space projection operators read in
  non local Contribution for L=           0  read in
    real space projection operators read in
  non local Contribution for L=           1  read in
    real space projection operators read in
  non local Contribution for L=           1  read in
    real space projection operators read in
  non local Contribution for L=           2  read in
    real space projection operators read in
  non local Contribution for L=           2  read in
    real space projection operators read in
    PAW grid and wavefunctions read in
 
   number of l-projection  operators is LMAX  =           6
   number of lm-projection operators is LMMAX =          18
 
 POTCAR:    PAW_PBE O 08Apr2002                   
   VRHFIN =O: s2p4                                                              
   LEXCH  = PE                                                                  
   EATOM  =   432.3788 eV,   31.7789 Ry                                         
                                                                                
   TITEL  = PAW_PBE O 08Apr2002                                                 
   LULTRA =        F    use ultrasoft PP ?                                      
   IUNSCR =        1    unscreen: 0-lin 1-nonlin 2-no                           
   RPACOR =    1.200    partial core radius                                     
   POMASS =   16.000; ZVAL   =    6.000    mass and valenz                      
   RCORE  =    1.520    outmost cutoff radius                                   
   RWIGS  =    1.550; RWIGS  =    0.820    wigner-seitz radius (au A)           
   ENMAX  =  400.000; ENMIN  =  300.000 eV                                      
   ICORE  =        2    local potential                                         
   LCOR   =        T    correct aug charges                                     
   LPAW   =        T    paw PP                                                  
   EAUG   =  605.392                                                            
   DEXC   =    0.000                                                            
   RMAX   =    1.553    core radius for proj-oper                               
   RAUG   =    1.300    factor for augmentation sphere                          
   RDEP   =    1.550    radius for radial grids                                 
   RDEPT  =    1.329    core radius for aug-charge                              
                                                                                
   Atomic configuration                                                         
    4 entries                                                                   
     n  l   j            E        occ.                                          
     1  0  0.50      -514.6923   2.0000                                         
     2  0  0.50       -23.9615   2.0000                                         
     2  1  0.50        -9.0305   4.0000                                         
     3  2  1.50        -9.5241   0.0000                                         
   Description                                                                  
     l       E           TYP  RCUT    TYP  RCUT                                 
     0    -23.9615318     23  1.200                                             
     0     -9.5240782     23  1.200                                             
     1     -9.0304911     23  1.520                                             
     1      8.1634956     23  1.520                                             
     2     -9.5240782      7  1.500                                             
  local pseudopotential read in
  partial core-charges read in
  partial kinetic energy density read in
  kinetic energy density of atom read in
  atomic valenz-charges read in
  non local Contribution for L=           0  read in
    real space projection operators read in
  non local Contribution for L=           0  read in
    real space projection operators read in
  non local Contribution for L=           1  read in
    real space projection operators read in
  non local Contribution for L=           1  read in
    real space projection operators read in
    PAW grid and wavefunctions read in
 
   number of l-projection  operators is LMAX  =           4
   number of lm-projection operators is LMMAX =           8
 
 POTCAR:    PAW_PBE H 15Jun2001                   
   VRHFIN =H: ultrasoft test                                                    
   LEXCH  = PE                                                                  
   EATOM  =    12.4884 eV,    0.9179 Ry                                         
                                                                                
   TITEL  = PAW_PBE H 15Jun2001                                                 
   LULTRA =        F    use ultrasoft PP ?                                      
   IUNSCR =        0    unscreen: 0-lin 1-nonlin 2-no                           
   RPACOR =    0.000    partial core radius                                     
   POMASS =    1.000; ZVAL   =    1.000    mass and valenz                      
   RCORE  =    1.100    outmost cutoff radius                                   
   RWIGS  =    0.700; RWIGS  =    0.370    wigner-seitz radius (au A)           
   ENMAX  =  250.000; ENMIN  =  200.000 eV                                      
   RCLOC  =    0.701    cutoff for local pot                                    
   LCOR   =        T    correct aug charges                                     
   LPAW   =        T    paw PP                                                  
   EAUG   =  400.000                                                            
   RMAX   =    1.123    core radius for proj-oper                               
   RAUG   =    1.200    factor for augmentation sphere                          
   RDEP   =    1.112    radius for radial grids                                 
   RDEPT  =    0.926    core radius for aug-charge                              
                                                                                
   Atomic configuration                                                         
    2 entries                                                                   
     n  l   j            E        occ.                                          
     1  0  0.50        -6.4927   1.0000                                         
     2  1  0.50        -3.4015   0.0000                                         
   Description                                                                  
     l       E           TYP  RCUT    TYP  RCUT                                 
     0     -6.4927494     23  1.100                                             
     0      6.8029130     23  1.100                                             
     1     -4.0817478     23  1.100                                             
  local pseudopotential read in
  atomic valenz-charges read in
  non local Contribution for L=           0  read in
    real space projection operators read in
  non local Contribution for L=           0  read in
    real space projection operators read in
  non local Contribution for L=           1  read in
    real space projection operators read in
    PAW grid and wavefunctions read in
 
   number of l-projection  operators is LMAX  =           3
   number of lm-projection operators is LMMAX =           5
 
 POTCAR:    PAW_PBE C 08Apr2002                   
   VRHFIN =C: s2p2                                                              
   LEXCH  = PE                                                                  
   EATOM  =   147.1560 eV,   10.8157 Ry                                         
                                                                                
   TITEL  = PAW_PBE C 08Apr2002                                                 
   LULTRA =        F    use ultrasoft PP ?                                      
   IUNSCR =        1    unscreen: 0-lin 1-nonlin 2-no                           
   RPACOR =    1.200    partial core radius                                     
   POMASS =   12.011; ZVAL   =    4.000    mass and valenz                      
   RCORE  =    1.500    outmost cutoff radius                                   
   RWIGS  =    1.630; RWIGS  =    0.863    wigner-seitz radius (au A)           
   ENMAX  =  400.000; ENMIN  =  300.000 eV                                      
   ICORE  =        2    local potential                                         
   LCOR   =        T    correct aug charges                                     
   LPAW   =        T    paw PP                                                  
   EAUG   =  644.873                                                            
   DEXC   =    0.000                                                            
   RMAX   =    1.529    core radius for proj-oper                               
   RAUG   =    1.300    factor for augmentation sphere                          
   RDEP   =    1.501    radius for radial grids                                 
   RDEPT  =    1.300    core radius for aug-charge                              
                                                                                
   Atomic configuration                                                         
    4 entries                                                                   
     n  l   j            E        occ.                                          
     1  0  0.50      -273.3789   2.0000                                         
     2  0  0.50       -13.7508   2.0000                                         
     2  1  0.50        -5.2854   2.0000                                         
     3  2  1.50        -5.4423   0.0000                                         
   Description                                                                  
     l       E           TYP  RCUT    TYP  RCUT                                 
     0    -13.7508458     23  1.200                                             
     0     -8.2022199     23  1.200                                             
     1     -5.2854383     23  1.500                                             
     1     34.0145650     23  1.500                                             
     2     -5.4423304      7  1.500                                             
  local pseudopotential read in
  partial core-charges read in
  partial kinetic energy density read in
  atomic valenz-charges read in
  non local Contribution for L=           0  read in
    real space projection operators read in
  non local Contribution for L=           0  read in
    real space projection operators read in
  non local Contribution for L=           1  read in
    real space projection operators read in
  non local Contribution for L=           1  read in
    real space projection operators read in
    PAW grid and wavefunctions read in
 
   number of l-projection  operators is LMAX  =           4
   number of lm-projection operators is LMMAX =           8
 
 Optimization of the real space projectors (new method)

 maximal supplied QI-value         = 15.12
 optimisation between [QCUT,QGAM] = [ 11.34, 22.83] = [ 36.00,145.93] Ry 
 Optimized for a Real-space Cutoff    1.47 Angstroem

   l    n(q)    QCUT    max X(q) W(low)/X(q) W(high)/X(q)  e(spline) 
   0     10    11.338    12.107    0.38E-04    0.13E-04    0.27E-07
   0     10    11.338     9.948    0.69E-04    0.30E-04    0.38E-07
   1     10    11.338     3.563    0.26E-04    0.18E-04    0.40E-07
   1     10    11.338     4.524    0.25E-03    0.39E-04    0.44E-06
   2      9    11.338    87.261    0.26E-03    0.91E-05    0.26E-06
   2      9    11.338    70.950    0.25E-03    0.91E-05    0.25E-06
 Optimization of the real space projectors (new method)

 maximal supplied QI-value         = 24.76
 optimisation between [QCUT,QGAM] = [ 11.39, 22.77] = [ 36.31,145.25] Ry 
 Optimized for a Real-space Cutoff    1.00 Angstroem

   l    n(q)    QCUT    max X(q) W(low)/X(q) W(high)/X(q)  e(spline) 
   0      7    11.387    20.381    0.39E-03    0.13E-02    0.15E-06
   0      7    11.387    15.268    0.42E-03    0.14E-02    0.17E-06
   1      6    11.387     5.964    0.41E-03    0.11E-02    0.17E-06
   1      6    11.387     5.382    0.39E-03    0.87E-03    0.15E-06
 Optimization of the real space projectors (new method)

 maximal supplied QI-value         = 34.20
 optimisation between [QCUT,QGAM] = [ 11.29, 22.57] = [ 35.68,142.71] Ry 
 Optimized for a Real-space Cutoff    1.16 Angstroem

   l    n(q)    QCUT    max X(q) W(low)/X(q) W(high)/X(q)  e(spline) 
   0      8    11.287    19.460    0.40E-03    0.73E-03    0.16E-06
   0      8    11.287    12.209    0.38E-03    0.70E-03    0.15E-06
   1      7    11.287     4.655    0.22E-03    0.25E-04    0.22E-06
 Optimization of the real space projectors (new method)

 maximal supplied QI-value         = 25.13
 optimisation between [QCUT,QGAM] = [ 11.31, 22.87] = [ 35.82,146.48] Ry 
 Optimized for a Real-space Cutoff    1.00 Angstroem

   l    n(q)    QCUT    max X(q) W(low)/X(q) W(high)/X(q)  e(spline) 
   0      7    11.310   115.676    0.43E-03    0.13E-02    0.19E-06
   0      7    11.310    87.132    0.43E-03    0.13E-02    0.18E-06
   1      6    11.310     4.429    0.42E-03    0.74E-03    0.11E-06
   1      6    11.310     2.733    0.34E-03    0.55E-03    0.92E-07
  PAW_PBE Zr_sv 04Jan2005               :
 energy of atom  1       EATOM=-1284.2219
 kinetic energy error for atom=    0.0049 (will be added to EATOM!!)
  PAW_PBE O 08Apr2002                   :
 energy of atom  2       EATOM= -432.3788
 kinetic energy error for atom=    0.0224 (will be added to EATOM!!)
  PAW_PBE H 15Jun2001                   :
 energy of atom  3       EATOM=  -12.4884
 kinetic energy error for atom=    0.0020 (will be added to EATOM!!)
  PAW_PBE C 08Apr2002                   :
 energy of atom  4       EATOM= -147.1560
 kinetic energy error for atom=    0.0076 (will be added to EATOM!!)
 
 
 POSCAR: CONTCAR1-ZrO2-+H-propyl-C1              
  positions in direct lattice
  velocities in cartesian coordinates
  No initial velocities read in
 exchange correlation table for  LEXCH =        8
   RHO(1)=    0.500       N(1)  =     2000
   RHO(2)=  100.500       N(2)  =     4000
 


--------------------------------------------------------------------------------------------------------


 ion  position               nearest neighbor table
   1  0.088  0.321  0.038-  78 2.10  62 2.10  50 2.18  74 2.19  61 2.26  54 2.30  16 3.37   6 3.50
                            12 3.52  13 3.65
   2  0.338  0.821  0.038-  79 2.10  63 2.10  51 2.18  75 2.19  58 2.26  55 2.30  13 3.37   7 3.50
                             9 3.52  14 3.65
   3  0.588  0.321  0.038-  80 2.10  64 2.10  52 2.18  76 2.19  59 2.26  56 2.30  14 3.37   8 3.50
                            10 3.52  15 3.65
   4  0.838  0.821  0.038-  81 2.10  65 2.10  53 2.18  77 2.19  60 2.26  57 2.30  15 3.37   5 3.50
                            11 3.52  16 3.65
   5  0.070  0.834  0.049-  82 2.07  66 2.10  65 2.18  58 2.19  57 2.22  70 2.30  12 3.37  17 3.47
                             4 3.50  16 3.52   9 3.65
   6  0.320  0.334  0.049-  83 2.06  67 2.10  62 2.18  59 2.19  54 2.22  71 2.30   9 3.37  18 3.47
                             1 3.50  13 3.52  10 3.65
   7  0.570  0.834  0.049-  84 2.06  68 2.10  63 2.18  60 2.19  55 2.22  72 2.30  10 3.37  19 3.48
                             2 3.50  14 3.52  11 3.65
   8  0.820  0.334  0.049-  85 2.08  69 2.10  64 2.18  61 2.19  56 2.22  73 2.30  11 3.37   3 3.50
                            20 3.51  15 3.52  12 3.65
   9  0.238  0.068  0.057-  62 2.10  86 2.16  67 2.18  70 2.19  75 2.22  58 2.30   6 3.37  17 3.48
                            14 3.50  22 3.52   2 3.52   5 3.65
  10  0.488  0.568  0.057-  63 2.10  87 2.18  68 2.18  71 2.19  76 2.22  59 2.30   7 3.37  18 3.48
                            15 3.50   3 3.52  23 3.52   6 3.65
  11  0.738  0.068  0.057-  64 2.10  69 2.18  88 2.18  72 2.19  77 2.22  60 2.30   8 3.37  19 3.47
                            16 3.50   4 3.52  24 3.52   7 3.65
  12  0.988  0.568  0.057-  65 2.10  66 2.18  89 2.18  73 2.19  74 2.22  61 2.30   5 3.37  13 3.50
                             1 3.52  21 3.53  20 3.53   8 3.65
  13  0.220  0.581  0.068-  51 2.10  66 2.10  79 2.18  54 2.19  71 2.26  90 2.26  74 2.30   2 3.37
                            21 3.49  26 3.50  12 3.50  18 3.50   6 3.52   1 3.65
  14  0.470  0.081  0.068-  52 2.10  67 2.10  80 2.18  55 2.19  72 2.26  91 2.27  75 2.30   3 3.37
                            27 3.48  22 3.49   9 3.50  19 3.52   7 3.52   2 3.65
  15  0.720  0.581  0.068-  53 2.10  68 2.10  81 2.18  56 2.19  73 2.26  92 2.26  76 2.30   4 3.37
                            23 3.49  28 3.50  10 3.50   8 3.52  20 3.53   3 3.65
  16  0.970  0.081  0.068-  50 2.10  69 2.10  78 2.18  57 2.19  70 2.26  93 2.26  77 2.30   1 3.37
                            24 3.50  11 3.50  17 3.50  25 3.50   5 3.52   4 3.65
  17  0.106  0.983  0.171-  94 2.09 110 2.13  82 2.16  70 2.19 106 2.19  93 2.23  86 2.30  32 3.39
                             5 3.47   9 3.48  16 3.50  22 3.52  25 3.54  29 3.66
  18  0.356  0.484  0.171-  95 2.09 111 2.14  83 2.16  71 2.19 107 2.19  90 2.23  87 2.30  29 3.37
                             6 3.47  10 3.48  13 3.50  23 3.52  26 3.54  30 3.65
  19  0.608  0.984  0.171-  96 2.09 112 2.15  84 2.18  72 2.19 108 2.20  91 2.23  88 2.28  30 3.39
                            11 3.47   7 3.48  24 3.49  14 3.52  27 3.52  31 3.70
  20  0.855  0.482  0.173-  97 2.10 113 2.11  85 2.18 109 2.20  92 2.23  73 2.24  89 2.33  31 3.32
                            28 3.50   8 3.51  12 3.53  21 3.53  15 3.53  32 3.65
  21  0.089  0.495  0.183- 114 2.09  98 2.11  97 2.17  90 2.18  74 2.24  89 2.27 102 2.29  25 3.37
                            13 3.49  32 3.51  12 3.53  20 3.53  26 3.63  33 3.64
  22  0.339  0.995  0.182- 115 2.10  99 2.11  94 2.17  91 2.19  75 2.23 103 2.25  86 2.28  26 3.38
                            14 3.49  29 3.51   9 3.52  17 3.52  34 3.61  27 3.62
  23  0.589  0.493  0.182- 100 2.08 116 2.11  95 2.17  92 2.18  76 2.23  87 2.29 104 2.31  27 3.37
                            15 3.49  35 3.50  18 3.52  10 3.52  30 3.56  28 3.69
  24  0.839  0.995  0.183- 117 2.10 101 2.11  96 2.18  93 2.18  77 2.25  88 2.26 105 2.28  28 3.37
                            19 3.49  16 3.50  11 3.52  31 3.54  36 3.62  25 3.64
  25  0.005  0.230  0.191-  78 2.10  97 2.10 121 2.17  98 2.19 105 2.21 106 2.30  93 2.30  21 3.37
                            37 3.45  16 3.50  17 3.54  29 3.55  24 3.64  36 3.65
  26  0.253  0.730  0.191-  79 2.10  94 2.10 102 2.18  99 2.20 118 2.20 107 2.29  90 2.29  22 3.38
                            38 3.46  13 3.50  18 3.54  30 3.54  21 3.63  33 3.65
  27  0.504  0.229  0.191-  80 2.09  95 2.11 119 2.18 100 2.19 103 2.19  91 2.29 108 2.29  23 3.37
                            39 3.47  14 3.48  19 3.52  31 3.59  22 3.62  34 3.66
  28  0.757  0.730  0.191-  81 2.08  96 2.11 101 2.16 120 2.22 104 2.23 109 2.25  92 2.30  24 3.37
                            15 3.50  35 3.50  32 3.50  20 3.50  40 3.54  23 3.69
  29  0.240  0.242  0.201-  98 2.10  83 2.10 122 2.19 103 2.21 111 2.21  86 2.23 106 2.29  18 3.37
                            37 3.41  42 3.50  22 3.51  25 3.55  34 3.64  17 3.66
  30  0.488  0.743  0.200-  99 2.08  84 2.09 112 2.19 123 2.20  87 2.22 104 2.25 107 2.29  19 3.39
                            38 3.44  43 3.49  35 3.51  26 3.54  23 3.56  18 3.65
  31  0.741  0.245  0.204-  85 2.11 100 2.12 113 2.12 105 2.21 124 2.25  88 2.29 108 2.31  20 3.32
                            39 3.44  24 3.54  44 3.56  27 3.59  36 3.63  19 3.70
  32  0.989  0.740  0.202- 101 2.11  82 2.13 110 2.19 125 2.21 102 2.21  89 2.22 109 2.28  17 3.39
                            41 3.47  40 3.49  28 3.50  21 3.51  33 3.63  20 3.65
  33  0.123  0.641  0.314- 142 2.02 126 2.16 138 2.17 114 2.21 125 2.25 118 2.37 102 2.41  45 3.23
                            41 3.48  38 3.54  32 3.63  21 3.64  26 3.65  46 3.71
  34  0.371  0.139  0.313- 143 2.02 127 2.14 139 2.19 115 2.19 122 2.24 119 2.35 103 2.44  46 3.22
                            42 3.49  39 3.53  22 3.61  29 3.64  47 3.65  27 3.66
  35  0.623  0.646  0.305- 140 2.14 128 2.15 116 2.19 123 2.20 104 2.20 144 2.25 120 2.26  49 3.29
                            47 3.43  43 3.44  28 3.50  23 3.50  30 3.51  40 3.55  48 3.71
  36  0.874  0.139  0.314- 145 2.03 129 2.12 141 2.13 117 2.22 124 2.29 105 2.38 121 2.43  48 3.23
                            44 3.42  37 3.54  24 3.62  31 3.63  25 3.65  45 3.75
  37  0.110  0.161  0.312- 130 2.09 121 2.14 106 2.16 122 2.16 129 2.16 134 2.17  29 3.41  25 3.45
                            41 3.45  45 3.51  36 3.54  42 3.58
  38  0.358  0.659  0.313- 131 2.10 126 2.15 107 2.16 135 2.16 118 2.16 123 2.17  30 3.44  42 3.44
                            26 3.46  46 3.53  33 3.54  43 3.58
  39  0.606  0.157  0.314- 136 2.09 132 2.11 127 2.15 108 2.15 124 2.18 119 2.21  43 3.43  31 3.44
                            47 3.46  27 3.47  34 3.53  44 3.69
  40  0.858  0.662  0.318- 133 2.11 125 2.18 120 2.19 137 2.21 128 2.24 109 2.26 146 2.28  32 3.49
                            48 3.50  44 3.52  28 3.54  35 3.55  41 3.59  49 3.69
  41  0.027  0.889  0.324- 110 2.05 138 2.15 129 2.16 137 2.18 130 2.20 125 2.30  37 3.45  32 3.47
                            33 3.48  46 3.50  40 3.59
  42  0.275  0.388  0.325- 111 2.06 139 2.13 126 2.14 131 2.24 134 2.26 122 2.29  38 3.44  47 3.49
                            34 3.49  29 3.50  37 3.58
  43  0.524  0.886  0.325- 112 2.06 127 2.14 140 2.15 132 2.18 135 2.27 123 2.29  39 3.43  35 3.44
                            30 3.49  48 3.55  38 3.58
  44  0.782  0.383  0.334- 147 2.08 141 2.11 133 2.16 113 2.23 124 2.26 128 2.27 136 2.63  49 3.26
                            36 3.42  45 3.45  40 3.52  31 3.56  39 3.69
  45  0.011  0.407  0.336- 142 2.03 114 2.07 133 2.16 141 2.23 134 2.29 121 2.30  33 3.23  44 3.45
                            37 3.51  36 3.75
  46  0.259  0.906  0.336- 143 2.02 115 2.07 130 2.15 138 2.27 118 2.29 135 2.31  34 3.22  41 3.50
                            38 3.53  33 3.71
  47  0.506  0.399  0.334- 116 2.07 136 2.13 131 2.17 144 2.20 119 2.22 139 2.23  35 3.43  39 3.46
                            42 3.49  34 3.65  49 3.88
  48  0.759  0.908  0.336- 145 2.01 117 2.05 132 2.16 137 2.26 120 2.31 140 2.35  36 3.23  40 3.50
                            43 3.55  35 3.71
  49  0.696  0.547  0.422- 147 1.93 144 2.09 146 2.15 157 2.30 128 2.35  44 3.26  35 3.29  40 3.69
                            47 3.88
  50  0.024  0.173  0.000-  16 2.10   1 2.18
  51  0.274  0.673  0.000-  13 2.10   2 2.18
  52  0.524  0.173  0.000-  14 2.10   3 2.18
  53  0.774  0.673  0.000-  15 2.10   4 2.18
  54  0.215  0.432  0.016-  13 2.19   6 2.22   1 2.30
  55  0.465  0.932  0.016-  14 2.19   7 2.22   2 2.30
  56  0.715  0.432  0.016-  15 2.19   8 2.22   3 2.30
  57  0.965  0.932  0.016-  16 2.19   5 2.22   4 2.30
  58  0.207  0.891  0.025-   5 2.19   2 2.26   9 2.30
  59  0.457  0.391  0.025-   6 2.19   3 2.26  10 2.30
  60  0.707  0.891  0.025-   7 2.19   4 2.26  11 2.30
  61  0.957  0.391  0.025-   8 2.19   1 2.26  12 2.30
  62  0.197  0.226  0.044-   9 2.10   1 2.10   6 2.18
  63  0.447  0.726  0.044-  10 2.10   2 2.10   7 2.18
  64  0.697  0.226  0.044-  11 2.10   3 2.10   8 2.18
  65  0.947  0.726  0.044-  12 2.10   4 2.10   5 2.18
  66  0.111  0.675  0.062-   5 2.10  13 2.10  12 2.18
  67  0.361  0.175  0.062-   6 2.10  14 2.10   9 2.18
  68  0.611  0.675  0.062-   7 2.10  15 2.10  10 2.18
  69  0.861  0.175  0.062-   8 2.10  16 2.10  11 2.18
  70  0.101  0.010  0.081-  17 2.19   9 2.19  16 2.26   5 2.30
  71  0.351  0.510  0.081-  18 2.19  10 2.19  13 2.26   6 2.30
  72  0.601  0.010  0.081-  19 2.19  11 2.19  14 2.26   7 2.30
  73  0.851  0.510  0.081-  12 2.19  20 2.24  15 2.26   8 2.30
  74  0.093  0.470  0.090-   1 2.19  12 2.22  21 2.24  13 2.30
  75  0.343  0.970  0.090-   2 2.19   9 2.22  22 2.23  14 2.30
  76  0.593  0.470  0.090-   3 2.19  10 2.22  23 2.23  15 2.30
  77  0.843  0.970  0.090-   4 2.19  11 2.22  24 2.25  16 2.30
  78  0.034  0.229  0.106-   1 2.10  25 2.10  16 2.18
  79  0.284  0.729  0.106-   2 2.10  26 2.10  13 2.18
  80  0.534  0.229  0.106-  27 2.09   3 2.10  14 2.18
  81  0.784  0.729  0.106-  28 2.08   4 2.10  15 2.18
  82  0.046  0.833  0.134-   5 2.07  32 2.13  17 2.16
  83  0.296  0.334  0.133-   6 2.06  29 2.10  18 2.16
  84  0.546  0.834  0.133-   7 2.06  30 2.09  19 2.18
  85  0.796  0.333  0.134-   8 2.08  31 2.11  20 2.18
  86  0.231  0.093  0.146-   9 2.16  29 2.23  22 2.28  17 2.30
  87  0.482  0.593  0.147-  10 2.18  30 2.22  23 2.29  18 2.30
  88  0.732  0.094  0.147-  11 2.18  24 2.26  19 2.28  31 2.29
  89  0.982  0.593  0.147-  12 2.18  32 2.22  21 2.27  20 2.33
  90  0.226  0.552  0.161-  21 2.18  18 2.23  13 2.26  26 2.29
  91  0.476  0.051  0.161-  22 2.19  19 2.23  14 2.27  27 2.29
  92  0.725  0.552  0.161-  23 2.18  20 2.23  15 2.26  28 2.30
  93  0.975  0.052  0.161-  24 2.18  17 2.23  16 2.26  25 2.30
  94  0.215  0.890  0.181-  17 2.09  26 2.10  22 2.17
  95  0.464  0.389  0.181-  18 2.09  27 2.11  23 2.17
  96  0.715  0.889  0.181-  19 2.09  28 2.11  24 2.18
  97  0.965  0.390  0.182-  20 2.10  25 2.10  21 2.17
  98  0.130  0.335  0.192-  29 2.10  21 2.11  25 2.19
  99  0.379  0.835  0.193-  30 2.08  22 2.11  26 2.20
 100  0.628  0.335  0.194-  23 2.08  31 2.12  27 2.19
 101  0.880  0.836  0.194-  24 2.11  32 2.11  28 2.16
 102  0.118  0.671  0.215-  26 2.18  32 2.21  21 2.29  33 2.41
 103  0.367  0.169  0.213-  27 2.19  29 2.21  22 2.25  34 2.44
 104  0.619  0.671  0.214-  35 2.20  28 2.23  30 2.25  23 2.31
 105  0.868  0.170  0.216-  25 2.21  31 2.21  24 2.28  36 2.38
 106  0.116  0.130  0.224-  37 2.16  17 2.19  29 2.29  25 2.30
 107  0.364  0.631  0.224-  38 2.16  18 2.19  26 2.29  30 2.29
 108  0.615  0.131  0.225-  39 2.15  19 2.20  27 2.29  31 2.31
 109  0.864  0.632  0.225-  20 2.20  28 2.25  40 2.26  32 2.28
 110  0.047  0.893  0.240-  41 2.05  17 2.13  32 2.19
 111  0.297  0.396  0.241-  42 2.06  18 2.14  29 2.21
 112  0.547  0.893  0.240-  43 2.06  19 2.15  30 2.19
 113  0.796  0.394  0.241-  20 2.11  31 2.12  44 2.23
 114  0.070  0.492  0.269-  45 2.07  21 2.09  33 2.21
 115  0.315  0.992  0.268-  46 2.07  22 2.10  34 2.19
 116  0.562  0.493  0.268-  47 2.07  23 2.11  35 2.19
 117  0.812  0.993  0.268-  48 2.05  24 2.10  36 2.22
 118  0.251  0.750  0.283-  38 2.16  26 2.20  46 2.29  33 2.37
 119  0.497  0.249  0.281-  27 2.18  39 2.21  47 2.22  34 2.35
 120  0.750  0.749  0.283-  40 2.19  28 2.22  35 2.26  48 2.31
 121  0.005  0.251  0.281-  37 2.14  25 2.17  45 2.30  36 2.43
 122  0.246  0.214  0.291-  37 2.16  29 2.19  34 2.24  42 2.29
 123  0.494  0.712  0.290-  38 2.17  35 2.20  30 2.20  43 2.29
 124  0.744  0.215  0.296-  39 2.18  31 2.25  44 2.26  36 2.29
 125  0.995  0.712  0.293-  40 2.18  32 2.21  33 2.25  41 2.30
 126  0.239  0.554  0.329-  42 2.14  38 2.15  33 2.16
 127  0.486  0.051  0.327-  34 2.14  43 2.14  39 2.15
 128  0.732  0.552  0.327-  35 2.15  40 2.24  44 2.27  49 2.35
 129  0.989  0.055  0.328-  36 2.12  41 2.16  37 2.16
 130  0.147  0.003  0.331-  37 2.09  46 2.15  41 2.20
 131  0.398  0.504  0.334-  38 2.10  47 2.17  42 2.24
 132  0.643  1.000  0.334-  39 2.11  48 2.16  43 2.18
 133  0.897  0.501  0.328-  40 2.11  44 2.16  45 2.16
 134  0.138  0.321  0.351-  37 2.17  42 2.26  45 2.29
 135  0.386  0.819  0.351-  38 2.16  43 2.27  46 2.31
 136  0.617  0.309  0.354-  39 2.09  47 2.13  44 2.63
 137  0.890  0.833  0.346-  41 2.18  40 2.21  48 2.26
 138  0.132  0.799  0.356-  41 2.15  33 2.17  46 2.27
 139  0.380  0.298  0.355-  42 2.13  34 2.19  47 2.23
 140  0.629  0.793  0.354-  35 2.14  43 2.15  48 2.35
 141  0.891  0.294  0.355-  44 2.11  36 2.13  45 2.23
 142  0.066  0.544  0.375-  33 2.02  45 2.03
 143  0.316  0.042  0.375-  46 2.02  34 2.02
 144  0.577  0.540  0.378-  49 2.09  47 2.20  35 2.25
 145  0.816  0.042  0.375-  48 2.01  36 2.03
 146  0.804  0.670  0.406- 150 0.97  49 2.15  40 2.28
 147  0.756  0.413  0.417-  49 1.93  44 2.08
 148  0.617  0.521  0.528- 157 1.11
 149  0.673  0.826  0.535- 156 1.10
 150  0.835  0.721  0.432- 146 0.97
 151  0.582  0.864  0.494- 156 1.10
 152  0.673  0.809  0.461- 156 1.10
 153  0.542  0.685  0.543- 158 1.10
 154  0.539  0.669  0.470- 158 1.11
 155  0.704  0.623  0.540- 157 1.11
 156  0.630  0.803  0.499- 149 1.10 151 1.10 152 1.10 158 1.53
 157  0.651  0.597  0.509- 155 1.11 148 1.11 158 1.55  49 2.30
 158  0.585  0.686  0.505- 153 1.10 154 1.11 156 1.53 157 1.55
 
  Warning from LATTYP: Monoclinic adjustement (A1->A3, A2->A1, A3->A2)!
  Warning from LATTYP: Got some problem with cell dimensions!
  Tried to take original basis but could not verify dimensions!
  LATTYP: Found a simple monoclinic cell.
 ALAT       =    18.5584556648
 B/A-ratio  =     1.2917238965
 C/A-ratio  =     1.7011970181
 COS(beta)  =    -0.9496615564
  
  Lattice vectors:
  
 A1 = ( -14.0305058395, -12.1474763861,   0.0000000000)
 A2 = (   0.0000000000,   0.0000000000, -23.9724006653)
 A3 = (  29.1411063110,  12.1474763861,   0.0000000000)


Analysis of symmetry for initial positions (statically):
=====================================================================
 Subroutine PRICEL returns:
 Original cell was already a primitive cell.
 

 Routine SETGRP: Setting up the symmetry group for a 
 simple monoclinic supercell.


 Subroutine GETGRP returns: Found  1 space group operations
 (whereof  1 operations were pure point group operations)
 out of a pool of  4 trial point group operations.


The static configuration has the point symmetry C_1 .


Analysis of symmetry for dynamics (positions and initial velocities):
=====================================================================
 Subroutine PRICEL returns:
 Original cell was already a primitive cell.
 

 Routine SETGRP: Setting up the symmetry group for a 
 simple monoclinic supercell.


 Subroutine GETGRP returns: Found  1 space group operations
 (whereof  1 operations were pure point group operations)
 out of a pool of  4 trial point group operations.


The dynamic configuration has the point symmetry C_1 .


Analysis of constrained symmetry for selective dynamics:
=====================================================================
 Subroutine PRICEL returns:
 Original cell was already a primitive cell.
 

 Routine SETGRP: Setting up the symmetry group for a 
 simple monoclinic supercell.


 Subroutine GETGRP returns: Found  1 space group operations
 (whereof  1 operations were pure point group operations)
 out of a pool of  4 trial point group operations.


The constrained configuration has the point symmetry C_1 .


Analysis of structural, dynamic, and magnetic symmetry:
=====================================================================
 Subroutine PRICEL returns:
 Original cell was already a primitive cell.
 

 Routine SETGRP: Setting up the symmetry group for a 
 simple monoclinic supercell.


 Subroutine GETGRP returns: Found  1 space group operations
 (whereof  1 operations were pure point group operations)
 out of a pool of  4 trial point group operations.


The magnetic configuration has the point symmetry C_1 .


 Subroutine INISYM returns: Found  1 space group operations
 (whereof  1 operations are pure point group operations),
 and found     1 'primitive' translations

 
 
 KPOINTS: Monkhorst Pack                          

Automatic generation of k-mesh.
Space group operators:
 irot       det(A)        alpha          n_x          n_y          n_z        tau_x        tau_y        tau_z
    1     1.000000     0.000001     1.000000     0.000000     0.000000     0.000000     0.000000     0.000000
 
 Subroutine IBZKPT returns following result:
 ===========================================
 
 Found      2 irreducible k-points:
 
 Following reciprocal coordinates:
            Coordinates               Weight
  0.250000  0.250000  0.000000      2.000000
 -0.250000  0.250000  0.000000      2.000000
 
 Following cartesian coordinates:
            Coordinates               Weight
  0.016545  0.022051  0.000000      2.000000
 -0.016545  0.019109  0.000000      2.000000
 


--------------------------------------------------------------------------------------------------------




 Dimension of arrays:
   k-points           NKPTS =      2   k-points in BZ     NKDIM =      2   number of bands    NBANDS=    640
   number of dos      NEDOS =    301   number of ions     NIONS =    158
   non local maximal  LDIM  =      6   non local SUM 2l+1 LMDIM =     18
   total plane-waves  NPLWV = 823200
   max r-space proj   IRMAX =   2561   max aug-charges    IRDMAX=   7978
   dimension x,y,z NGX =    84 NGY =   70 NGZ =  140
   dimension x,y,z NGXF=   168 NGYF=  140 NGZF=  280
   support grid    NGXF=   168 NGYF=  140 NGZF=  280
   ions per type =              49  98   8   3
   NGX,Y,Z   is equivalent  to a cutoff of   9.24,  9.54,  9.71 a.u.
   NGXF,Y,Z  is equivalent  to a cutoff of  18.48, 19.08, 19.42 a.u.

 SYSTEM =  mZrO2_n111                              
 POSCAR =  CONTCAR1-ZrO2-+H-propyl-C1              

 Startparameter for this run:
   NWRITE =      2    write-flag & timer
   PREC   = normal    normal or accurate (medium, high low for compatibility)
   ISTART =      1    job   : 0-new  1-cont  2-samecut
   ICHARG =      1    charge: 1-file 2-atom 10-const
   ISPIN  =      2    spin polarized calculation?
   LNONCOLLINEAR =      F non collinear calculations
   LSORBIT =      F    spin-orbit coupling
   INIWAV =      1    electr: 0-lowe 1-rand  2-diag
   LASPH  =      F    aspherical Exc in radial PAW
   METAGGA=      F    non-selfconsistent MetaGGA calc.

 Electronic Relaxation 1
   ENCUT  =  500.0 eV  36.75 Ry    6.06 a.u.  27.55 22.24 43.71*2*pi/ulx,y,z
   ENINI  =  500.0     initial cutoff
   ENAUG  =  644.9 eV  augmentation charge cutoff
   NELM   =    300;   NELMIN=  2; NELMDL=  0     # of ELM steps 
   EDIFF  = 0.1E-05   stopping-criterion for ELM
   LREAL  =      T    real-space projection
   NLSPLINE    = F    spline interpolate recip. space projectors
   LCOMPAT=      F    compatible to vasp.4.4
   GGA_COMPAT  = T    GGA compatible to vasp.4.4-vasp.4.6
   LMAXPAW     = -100 max onsite density
   LMAXMIX     =    2 max onsite mixed and CHGCAR
   VOSKOWN=      0    Vosko Wilk Nusair interpolation
   ROPT   =   -0.00050  -0.00050  -0.00050  -0.00050
 Ionic relaxation
   EDIFFG = -.2E-01   stopping-criterion for IOM
   NSW    =      0    number of steps for IOM
   NBLOCK =      1;   KBLOCK =      1    inner block; outer block 
   IBRION =     -1    ionic relax: 0-MD 1-quasi-New 2-CG
   NFREE  =      1    steps in history (QN), initial steepest desc. (CG)
   ISIF   =      2    stress and relaxation
   IWAVPR =     10    prediction:  0-non 1-charg 2-wave 3-comb
   ISYM   =      2    0-nonsym 1-usesym 2-fastsym
   LCORR  =      T    Harris-Foulkes like correction to forces

   POTIM  = 0.5000    time-step for ionic-motion
   TEIN   =    0.0    initial temperature
   TEBEG  =    0.0;   TEEND  =   0.0 temperature during run
   SMASS  =  -3.00    Nose mass-parameter (am)
   estimated Nose-frequenzy (Omega)   =  0.10E-29 period in steps =****** mass=  -0.522E-26a.u.
   SCALEE = 1.0000    scale energy and forces
   NPACO  =    256;   APACO  = 16.0  distance and # of slots for P.C.
   PSTRESS=    0.0 pullay stress

  Mass of Ions in am
   POMASS =  91.22 16.00  1.00 12.01
  Ionic Valenz
   ZVAL   =  12.00  6.00  1.00  4.00
  Atomic Wigner-Seitz radii
   RWIGS  =  -1.00 -1.00 -1.00 -1.00
  virtual crystal weights 
   VCA    =   1.00  1.00  1.00  1.00
   NELECT =    1196.0000    total number of electrons
   NUPDOWN=      -1.0000    fix difference up-down

 DOS related values:
   EMIN   =  10.00;   EMAX   =-10.00  energy-range for DOS
   EFERMI =   0.00
   ISMEAR =     0;   SIGMA  =   0.05  broadening in eV -4-tet -1-fermi 0-gaus

 Electronic relaxation 2 (details)
   IALGO  =     38    algorithm
   LDIAG  =      T    sub-space diagonalisation (order eigenvalues)
   LSUBROT=      F    optimize rotation matrix (better conditioning)
   TURBO    =      0    0=normal 1=particle mesh
   IRESTART =      0    0=no restart 2=restart with 2 vectors
   NREBOOT  =      0    no. of reboots
   NMIN     =      0    reboot dimension
   EREF     =   0.00    reference energy to select bands
   IMIX   =      4    mixing-type and parameters
     AMIX     =   0.40;   BMIX     =  1.00
     AMIX_MAG =   1.60;   BMIX_MAG =  1.00
     AMIN     =   0.10
     WC   =   100.;   INIMIX=   1;  MIXPRE=   1;  MAXMIX= -45

 Intra band minimization:
   WEIMIN = 0.0000     energy-eigenvalue tresh-hold
   EBREAK =  0.39E-09  absolut break condition
   DEPER  =   0.30     relativ break condition  

   TIME   =   0.40     timestep for ELM

  volume/ion in A,a.u.               =      27.85       187.94
  Fermi-wavevector in a.u.,A,eV,Ry     =   1.060455  2.003969 15.300624  1.124564
  Thomas-Fermi vector in A             =   2.195836
 
 Write flags
   LWAVE        =      F    write WAVECAR
   LDOWNSAMPLE  =      F    k-point downsampling of WAVECAR
   LCHARG       =      F    write CHGCAR
   LVTOT        =      F    write LOCPOT, total local potential
   LVHAR        =      F    write LOCPOT, Hartree potential only
   LELF         =      F    write electronic localiz. function (ELF)
   LORBIT       =      0    0 simple, 1 ext, 2 COOP (PROOUT), +10 PAW based schemes


 Dipole corrections
   LMONO  =      F    monopole corrections only (constant potential shift)
   LDIPOL =      F    correct potential (dipole corrections)
   IDIPOL =      3    1-x, 2-y, 3-z, 4-all directions 
   EPSILON=  1.0000000 bulk dielectric constant

 LDA+U is selected, type is set to LDAUTYPE =  2
   angular momentum for each species LDAUL =     2   -1   -1   -1
   U (eV)           for each species LDAUU =   4.0  0.0  0.0  0.0
   J (eV)           for each species LDAUJ =   0.0  0.0  0.0  0.0
 Exchange correlation treatment:
   GGA     =    --    GGA type
   LEXCH   =     8    internal setting for exchange type
   VOSKOWN=      0    Vosko Wilk Nusair interpolation
   LHFCALC =     F    Hartree Fock is set to
   LHFONE  =     F    Hartree Fock one center treatment
   AEXX    =    0.0000 exact exchange contribution

 Linear response parameters
   LEPSILON=     F    determine dielectric tensor
   LRPA    =     F    only Hartree local field effects (RPA)
   LNABLA  =     F    use nabla operator in PAW spheres
   LVEL    =     F    velocity operator in full k-point grid
   LINTERFAST=   F  fast interpolation
   KINTER  =     0    interpolate to denser k-point grid
   CSHIFT  =0.1000    complex shift for real part using Kramers Kronig
   OMEGAMAX=  -1.0    maximum frequency
   DEG_THRESHOLD= 0.2000000E-02 threshold for treating states as degnerate
   RTIME   =   -0.100 relaxation time in fs
  (WPLASMAI=    0.000 imaginary part of plasma frequency in eV, 0.658/RTIME)
   DFIELD  = 0.0000000 0.0000000 0.0000000 field for delta impulse in time
 
 Orbital magnetization related:
   ORBITALMAG=     F  switch on orbital magnetization
   LCHIMAG   =     F  perturbation theory with respect to B field
   DQ        =  0.001000  dq finite difference perturbation B field
   LLRAUG    =     F  two centre corrections for induced B field



--------------------------------------------------------------------------------------------------------


 Static calculation
 charge density and potential will be updated during run
 spin polarized calculation
 Variant of blocked Davidson
 Davidson routine will perform the subspace rotation
 perform sub-space diagonalisation
    after iterative eigenvector-optimisation
 modified Broyden-mixing scheme, WC =      100.0
 initial mixing is a Kerker type mixing with AMIX =  0.4000 and BMIX =      1.0000
 Hartree-type preconditioning will be used
 using additional bands           42
 real space projection scheme for non local part
 use partial core corrections
 calculate Harris-corrections to forces 
   (improved forces if not selfconsistent)
 use gradient corrections 
 use of overlap-Matrix (Vanderbilt PP)
 Gauss-broadening in eV      SIGMA  =   0.05


--------------------------------------------------------------------------------------------------------


  energy-cutoff  :      500.00
  volume of cell :     4400.27
      direct lattice vectors                 reciprocal lattice vectors
    15.110600471  0.000000000  0.000000000     0.066178707  0.005884289  0.000000000
    -1.080094632 12.147476386  0.000000000     0.000000000  0.082321625  0.000000000
     0.000000000  0.000000000 23.972400665     0.000000000  0.000000000  0.041714637

  length of vectors
    15.110600471 12.195400238 23.972400665     0.066439793  0.082321625  0.041714637


 
 old parameters found on file WAVECAR:
  energy-cutoff  :      500.00
  volume of cell :     4400.27
      direct lattice vectors                 reciprocal lattice vectors
    15.110600471  0.000000000  0.000000000     0.066178707  0.005884289  0.000000000
    -1.080094632 12.147476386  0.000000000     0.000000000  0.082321625  0.000000000
     0.000000000  0.000000000 23.972400665     0.000000000  0.000000000  0.041714637

  length of vectors

 
 k-points in units of 2pi/SCALE and weight: Monkhorst Pack                          
   0.01654468  0.02205148  0.00000000       0.500
  -0.01654468  0.01910933  0.00000000       0.500
 
 k-points in reciprocal lattice and weights: Monkhorst Pack                          
   0.25000000  0.25000000  0.00000000       0.500
  -0.25000000  0.25000000  0.00000000       0.500
 
 position of ions in fractional coordinates (direct lattice) 
   0.08848000  0.32082999  0.03824000
   0.33847998  0.82083000  0.03824000
   0.58847999  0.32082999  0.03824000
   0.83848001  0.82083000  0.03824000
   0.07020001  0.83354995  0.04873000
   0.32019998  0.33355000  0.04873000
   0.57020004  0.83354995  0.04873000
   0.82020001  0.33355000  0.04873000
   0.23783000  0.06778000  0.05703000
   0.48783004  0.56778001  0.05703000
   0.73783001  0.06778000  0.05703000
   0.98782997  0.56778001  0.05703000
   0.21954999  0.58051001  0.06752000
   0.46955000  0.08051000  0.06752000
   0.71954999  0.58051001  0.06752000
   0.96955000  0.08051000  0.06752000
   0.10602029  0.98278200  0.17092202
   0.35629449  0.48363433  0.17109370
   0.60768632  0.98414330  0.17127398
   0.85537844  0.48241393  0.17317356
   0.08931980  0.49463480  0.18253526
   0.33903312  0.99484945  0.18215721
   0.58915428  0.49250144  0.18202042
   0.83885537  0.99545288  0.18263206
   0.00461995  0.23019556  0.19143981
   0.25329000  0.72983210  0.19130054
   0.50380564  0.22862036  0.19077331
   0.75746074  0.73002634  0.19090729
   0.23959659  0.24179615  0.20067438
   0.48808424  0.74279674  0.19996898
   0.74101632  0.24522370  0.20388874
   0.98900102  0.74029193  0.20208514
   0.12296399  0.64105859  0.31408584
   0.37124520  0.13899274  0.31300121
   0.62345566  0.64641714  0.30475870
   0.87424255  0.13897654  0.31394660
   0.10969974  0.16066702  0.31239603
   0.35813298  0.65947282  0.31265862
   0.60562793  0.15740235  0.31355226
   0.85839940  0.66177248  0.31789913
   0.02671004  0.88875667  0.32440100
   0.27528681  0.38828752  0.32532237
   0.52443175  0.88629788  0.32488211
   0.78213538  0.38260698  0.33360554
   0.01132279  0.40688166  0.33582472
   0.25867260  0.90635714  0.33607796
   0.50643666  0.39919399  0.33376862
   0.75928654  0.90755198  0.33627081
   0.69619788  0.54658036  0.42208049
   0.02440000  0.17254999  0.00000000
   0.27439999  0.67255002  0.00000000
   0.52439999  0.17254999  0.00000000
   0.77439999  0.67255002  0.00000000
   0.21455000  0.43156997  0.01581000
   0.46455001  0.93156996  0.01581000
   0.71455008  0.43156997  0.01581000
   0.96455004  0.93156996  0.01581000
   0.20673000  0.89092997  0.02490000
   0.45673000  0.39092998  0.02490000
   0.70672997  0.89092997  0.02490000
   0.95673004  0.39092998  0.02490000
   0.19748000  0.22610000  0.04418000
   0.44748002  0.72610003  0.04418000
   0.69748003  0.22610000  0.04418000
   0.94747999  0.72610003  0.04418000
   0.11054000  0.67523994  0.06158000
   0.36054002  0.17523999  0.06158000
   0.61053998  0.67523994  0.06158000
   0.86053999  0.17523999  0.06158000
   0.10129000  0.01041000  0.08086000
   0.35129000  0.51041000  0.08086000
   0.60128998  0.01041000  0.08086000
   0.85128994  0.51041000  0.08086000
   0.09348000  0.46976000  0.08995000
   0.34348000  0.96975995  0.08995000
   0.59348001  0.46976000  0.08995000
   0.84347996  0.96975995  0.08995000
   0.03362000  0.22878000  0.10576000
   0.28361999  0.72877998  0.10576000
   0.53361997  0.22878000  0.10576000
   0.78362002  0.72877998  0.10576000
   0.04568708  0.83272168  0.13366837
   0.29624692  0.33386784  0.13347524
   0.54641378  0.83368256  0.13346206
   0.79587529  0.33262969  0.13407695
   0.23134252  0.09332337  0.14614897
   0.48163169  0.59345179  0.14668310
   0.73175808  0.09369942  0.14693552
   0.98166608  0.59333570  0.14694332
   0.22560038  0.55222501  0.16050378
   0.47622175  0.05080025  0.16063851
   0.72518736  0.55204815  0.16066803
   0.97527753  0.05224069  0.16074476
   0.21502958  0.89014140  0.18103627
   0.46448242  0.38935590  0.18068107
   0.71512439  0.88916545  0.18103320
   0.96527939  0.39037093  0.18193638
   0.12982649  0.33485998  0.19242360
   0.37907763  0.83493555  0.19337604
   0.62812549  0.33473414  0.19421643
   0.87987680  0.83614798  0.19365088
   0.11776303  0.67100919  0.21467297
   0.36702515  0.16923828  0.21263166
   0.61861497  0.67066991  0.21387033
   0.86787979  0.17030026  0.21611087
   0.11558645  0.13011051  0.22386469
   0.36400413  0.63093594  0.22399483
   0.61497374  0.13102269  0.22498575
   0.86407355  0.63172355  0.22510401
   0.04725647  0.89326909  0.23985731
   0.29693566  0.39560348  0.24056477
   0.54728868  0.89327412  0.24010555
   0.79614580  0.39373165  0.24119244
   0.06952593  0.49211408  0.26882975
   0.31476223  0.99213668  0.26830183
   0.56165434  0.49335742  0.26849934
   0.81156533  0.99346913  0.26848753
   0.25112068  0.75014696  0.28260302
   0.49656917  0.24889799  0.28089412
   0.75042516  0.74918074  0.28278428
   0.00518489  0.25084423  0.28146674
   0.24574012  0.21376826  0.29091291
   0.49428732  0.71168114  0.29040672
   0.74374999  0.21523877  0.29626303
   0.99460312  0.71153242  0.29290114
   0.23903734  0.55413042  0.32932261
   0.48588148  0.05131393  0.32685192
   0.73231554  0.55187206  0.32651487
   0.98948750  0.05518526  0.32828195
   0.14699357  0.00336517  0.33075258
   0.39816920  0.50443951  0.33396447
   0.64329862  0.99961775  0.33376413
   0.89681040  0.50065116  0.32841162
   0.13768823  0.32081460  0.35143442
   0.38588567  0.81909029  0.35106128
   0.61651490  0.30936910  0.35433432
   0.88992602  0.83291460  0.34630549
   0.13185631  0.79941560  0.35627405
   0.38030901  0.29837357  0.35525576
   0.62887533  0.79287330  0.35423158
   0.89094672  0.29405412  0.35549443
   0.06554275  0.54410785  0.37478674
   0.31586448  0.04213676  0.37459315
   0.57701446  0.53954863  0.37750619
   0.81588821  0.04199876  0.37488024
   0.80431712  0.66969396  0.40630392
   0.75596467  0.41342692  0.41719718
   0.61725167  0.52056172  0.52752531
   0.67254991  0.82584218  0.53495174
   0.83527905  0.72069541  0.43231814
   0.58207308  0.86435419  0.49421589
   0.67300549  0.80864302  0.46129377
   0.54161661  0.68513544  0.54282361
   0.53858142  0.66877048  0.47003993
   0.70410410  0.62287028  0.53957958
   0.63041081  0.80252211  0.49869267
   0.65100669  0.59693023  0.50938481
   0.58454782  0.68619900  0.50548665
 
 position of ions in cartesian coordinates  (Angst):
   0.99045921  3.89727473  0.91670460
   4.22806168  9.97101307  0.91670460
   8.54575920  3.89727473  0.91670460
  11.78336239  9.97101307  0.91670460
   0.16045142 10.12552833  1.16817511
   4.47814847  4.05179071  1.16817511
   7.71575212 10.12552833  1.16817511
  12.03344917  4.05179071  1.16817511
   3.52054525  0.82335597  1.36714601
   6.75814868  6.89709425  1.36714601
  11.07584571  0.82335597  1.36714601
  14.31344795  6.89709425  1.36714601
   2.69052649  7.05173159  1.61861647
   7.00822400  0.97799331  1.61861647
  10.24582672  7.05173159  1.61861647
  14.56352424  0.97799331  1.61861647
   0.54053261 11.93832119  4.09741107
   4.86145282  5.87493656  4.10152665
   8.11953731 11.95485748  4.10584836
  12.40422922  5.86011185  4.15138589
   0.81542345  6.00856453  4.37580839
   4.04846244 12.08491023  4.36674569
   8.37052682  5.98264965  4.36346634
  11.60042510 12.09224032  4.37812898
  -0.17882276  2.79629510  4.58927175
   3.03907626  8.86561822  4.58593323
   7.36587414  2.77716045  4.57329414
  10.65718904  8.86797769  4.57650593
   3.35928562  2.93721303  4.81064665
   6.57295523  9.02310591  4.79373649
  10.93233682  2.97884906  4.88770263
  14.14481397  8.99267868  4.84446589
   1.16565578  7.78724413  7.52939166
   5.45961262  1.68841101  7.50339032
   8.72259765  7.85233695  7.30579767
  13.06022200  1.68821425  7.52605367
   1.48409330  1.95169885  7.48888279
   4.69931134  8.01093055  7.49517780
   8.98139231  1.91204137  7.51660051
  12.25615350  8.03886555  7.62080527
  -0.55633659 10.79615071  7.77667068
   3.74036180  4.71671343  7.79875809
   6.96719312 10.76628254  7.78820406
  11.40528347  4.64770927  7.99732557
  -0.26837651  4.94258537  8.05052476
   2.92974682 11.00995191  8.05659541
   7.22139471  4.84919952  8.00123498
  10.49303351 11.02446621  8.06121847
   9.92960957  6.63957202 10.11828251
   0.18232835  2.09604693  0.00000000
   3.41993094  8.16978550  0.00000000
   7.73762846  2.09604693  0.00000000
  10.97523117  8.16978550  0.00000000
   2.77584291  5.24248600  0.37900365
   6.01344586 11.31622410  0.37900365
  10.33114434  5.24248600  0.37900365
  13.56874656 11.31622410  0.37900365
   2.16152573 10.82255077  0.59691280
   6.47922326  4.74881268  0.59691280
   9.71682548 10.82255077  0.59691280
  14.03452396  4.74881268  0.59691280
   2.73983193  2.74654436  1.05910064
   5.97743511  8.82028293  1.05910064
  10.29513263  2.74654436  1.05910064
  13.53273487  8.82028293  1.05910064
   0.94100273  8.20246124  1.47622036
   5.25870037  2.12872362  1.47622036
   8.49630260  8.20246124  1.47622036
  12.81400013  2.12872362  1.47622036
   1.51930892  0.12645522  1.93840825
   4.75691175  6.20019341  1.93840825
   9.07460880  0.12645522  1.93840825
  12.31221104  6.20019341  1.93840825
   0.90515363  5.70639848  2.15631746
   4.14275646 11.78013610  2.15631746
   8.46045399  5.70639848  2.15631746
  11.69805622 11.78013610  2.15631746
   0.26091433  2.77909971  2.53532100
   3.49851704  8.85283756  2.53532100
   7.81621408  2.77909971  2.53532100
  11.05381775  8.85283756  2.53532100
  -0.20905908 10.11546699  3.20435161
   4.11586001  4.05565170  3.19972186
   7.35618424 10.12713917  3.19940595
  11.66688200  4.04061135  3.21414630
   3.39492630  1.13364342  3.50354172
   6.63675992  7.20894157  3.51634603
  10.95609972  1.13821149  3.52239725
  14.19270528  7.20753135  3.52258416
   2.81250199  6.70814021  3.84766100
   7.14112747  0.61709485  3.85089071
  10.36175221  6.70599185  3.85159842
  14.68060419  0.63459255  3.85343781
   2.28778908 10.81297167  4.33987390
   6.59806710  4.72969159  4.33135902
   9.84557608 10.80111626  4.33980049
  14.16431365  4.74202170  4.36145172
   1.60007580  4.06770365  4.61285552
   4.82628126 10.14235988  4.63568802
   9.12980878  4.06617505  4.65583398
  12.39234783 10.15708784  4.64227646
   1.05471664  8.15106831  5.14622650
   5.36317704  2.05581805  5.09729133
   8.62325669  8.14694693  5.12698513
  12.93024436  2.06871834  5.18069630
   1.60604903  1.58051431  5.36657398
   4.81885043  7.66427945  5.36969383
   9.15110553  1.59159505  5.39344859
  12.37434891  7.67384685  5.39628344
  -0.25074155 10.85096521  5.74995547
   4.05958687  4.80558393  5.76691504
   7.30504005 10.85102628  5.75590648
  11.60497363  4.78284587  5.78196187
   0.51904881  5.97794421  6.44449459
   3.68464472 12.05195693  6.43183892
   7.95406160  5.99304759  6.43657387
  11.19019882 12.06814283  6.43629066
   2.98435463  9.11239242  6.77467276
   7.23462491  3.02348251  6.73370641
  10.53018871  9.10065531  6.77901813
  -0.19258874  3.04712435  6.74743355
   3.48239080  2.59674488  6.97388079
   6.70029527  8.64512990  6.96174614
  11.00603074  2.61460785  7.10213608
  14.26052805  8.64332329  7.02154358
   3.01348452  6.73128624  7.89465361
   7.28653707  0.62333471  7.83542514
  10.46965344  6.70385278  7.82734534
  14.89214498  0.67036169  7.86970641
   2.21752644  0.04087835  7.92893341
   5.47173324  6.12766703  8.00593008
   8.64094667 12.14283301  8.00112738
  13.01059308  6.08164813  7.87281502
   1.73404172  3.89708782  8.42472676
   4.94626921  9.94987998  8.41578157
   8.98176238  3.75805379  8.49424418
  12.54769002 10.11781038  8.30177407
   1.12898356  9.71088207  8.54074435
   5.42442578  3.62448589  8.51633335
   8.64630559  9.63140967  8.49178144
  13.14513372  3.57201549  8.52205496
   0.40270237  6.60953721  8.98453778
   4.72739026  0.51185530  8.97989699
   8.13627144  6.55415419  9.04972972
  12.28319819  0.51017900  8.98677937
  11.43038183  8.13509153  9.74008034
  10.97653984  5.02209371 10.00121798
   8.76478749  6.32351125 12.64604809
   9.27064530 10.03189834 12.82407740
  11.84314880  8.75463044 10.36370356
   7.86188939 10.49972206 11.84754136
   9.29610617  9.82297194 11.05831916
   7.44414111  8.32266660 13.01278518
   7.41595319  8.12387359 11.26798553
   9.96667694  7.56630207 12.93501792
   8.65908603  9.74861833 11.95486055
   9.19236084  7.25119588 12.21117675
   8.09170868  8.33558615 12.11772856
 


--------------------------------------------------------------------------------------------------------


 k-point  1 :   0.2500 0.2500 0.0000  plane waves:  111683
 k-point  2 :  -0.2500 0.2500 0.0000  plane waves:  111725

 maximum and minimum number of plane-waves per node :     18644    18587

 maximum number of plane-waves:    111725
 maximum index in each direction: 
   IXMAX=   27   IYMAX=   21   IZMAX=   43
   IXMIN=  -27   IYMIN=  -22   IZMIN=  -43


 real space projection operators:
  total allocation   :      22026.79 KBytes
  max/ min on nodes  :       3679.08       3667.56


 parallel 3D FFT for wavefunctions:
    minimum data exchange during FFTs selected (reduces bandwidth)
 parallel 3D FFT for charge:
    minimum data exchange during FFTs selected (reduces bandwidth)


 total amount of memory used by VASP MPI-rank0   174551. kBytes
=======================================================================

   base      :      30000. kBytes
   nonlr-proj:      11335. kBytes
   fftplans  :       9317. kBytes
   grid      :      26149. kBytes
   one-center:        839. kBytes
   wavefun   :      96911. kBytes
 
     INWAV:  cpu time    8.2236: real time    8.3314
 Broyden mixing: mesh for mixing (old mesh)
   NGX = 55   NGY = 45   NGZ = 87
  (NGX  =168   NGY  =140   NGZ  =280)
  gives a total of 215325 points

 initial charge density was supplied:
 number of electron    1196.0000060 magnetization      -0.0000000
 keeping initial charge density in first step


--------------------------------------------------------------------------------------------------------


 Maximum index for non-local projection operator          433
 Maximum index for augmentation-charges          476 (set IRDMAX)


--------------------------------------------------------------------------------------------------------


 First call to EWALD:  gamma=   0.108
 Maximum number of real-space cells 3x 4x 2
 Maximum number of reciprocal cells 3x 2x 4

    FEWALD:  cpu time    0.0050: real time    0.0050


--------------------------------------- Iteration      1(   1)  ---------------------------------------


    POTLOK:  cpu time    0.2262: real time    0.2281
    SETDIJ:  cpu time    0.0220: real time    0.0221
     EDDAV:  cpu time   28.0807: real time   28.1617
       DOS:  cpu time    0.0006: real time    0.0006
    CHARGE:  cpu time    1.2434: real time    1.2475
    MIXING:  cpu time    0.0065: real time    0.0067
    --------------------------------------------
      LOOP:  cpu time   29.5795: real time   29.6667

 eigenvalue-minimisations  :  6304
 total energy-change (2. order) :-0.1329141E+04  (-0.1314979E+00)
 number of electron    1196.0000059 magnetization       0.0000000
 augmentation part       73.5889493 magnetization      -0.0000001

 Broyden mixing:
  rms(total) = 0.95468E-01    rms(broyden)= 0.95390E-01
  rms(prec ) = 0.96691E-01
  weight for this iteration     100.00

 Free energy of the ion-electron system (eV)
  ---------------------------------------------------
  alpha Z        PSCENC =      2113.54737298
  Ewald energy   TEWEN  =    393050.91655041
  -Hartree energ DENC   =   -489480.71939790
  -exchange      EXHF   =         0.00000000
  -V(xc)+E(xc)   XCENC  =      5279.22660605
  PAW double counting   =    128956.83557709  -128276.65365020
  entropy T*S    EENTRO =        -0.00000000
  eigenvalues    EBANDS =    -18811.19665566
  atomic energy  EATOM  =    105838.90241102
  Solvation  Ediel_sol  =         0.00000000
  ---------------------------------------------------
  free energy    TOTEN  =     -1329.14118622 eV

  energy without entropy =    -1329.14118622  energy(sigma->0) =    -1329.14118622


--------------------------------------------------------------------------------------------------------




--------------------------------------- Iteration      1(   2)  ---------------------------------------


    POTLOK:  cpu time    0.2151: real time    0.2157
    SETDIJ:  cpu time    0.0212: real time    0.0213
     EDDAV:  cpu time   27.9414: real time   28.0123
       DOS:  cpu time    0.0006: real time    0.0006
    CHARGE:  cpu time    1.2324: real time    1.2355
    MIXING:  cpu time    0.0064: real time    0.0065
    --------------------------------------------
      LOOP:  cpu time   29.4171: real time   29.4919

 eigenvalue-minimisations  :  6240
 total energy-change (2. order) :-0.1759011E+01  (-0.1173316E+00)
 number of electron    1196.0000059 magnetization      -0.0000000
 augmentation part       73.5145749 magnetization      -0.0000001

 Broyden mixing:
  rms(total) = 0.40572E-01    rms(broyden)= 0.40456E-01
  rms(prec ) = 0.42657E-01
  weight for this iteration     100.00

 eigenvalues of (default mixing * dielectric matrix)
  average eigenvalue GAMMA=   0.7383
  0.7383

 Free energy of the ion-electron system (eV)
  ---------------------------------------------------
  alpha Z        PSCENC =      2113.54737298
  Ewald energy   TEWEN  =    393050.91655041
  -Hartree energ DENC   =   -489481.83943286
  -exchange      EXHF   =         0.00000000
  -V(xc)+E(xc)   XCENC  =      5279.31831365
  PAW double counting   =    128811.95334621  -128130.71414336
  entropy T*S    EENTRO =        -0.00000000
  eigenvalues    EBANDS =    -18812.98461495
  atomic energy  EATOM  =    105838.90241102
  Solvation  Ediel_sol  =         0.00000000
  ---------------------------------------------------
  free energy    TOTEN  =     -1330.90019690 eV

  energy without entropy =    -1330.90019690  energy(sigma->0) =    -1330.90019690


--------------------------------------------------------------------------------------------------------




--------------------------------------- Iteration      1(   3)  ---------------------------------------


    POTLOK:  cpu time    0.2130: real time    0.2137
    SETDIJ:  cpu time    0.0213: real time    0.0214
     EDDAV:  cpu time   29.6680: real time   29.7546
       DOS:  cpu time    0.0007: real time    0.0007
    CHARGE:  cpu time    1.2172: real time    1.2204
    MIXING:  cpu time    0.0063: real time    0.0063
    --------------------------------------------
      LOOP:  cpu time   31.1265: real time   31.2171

 eigenvalue-minimisations  :  6720
 total energy-change (2. order) :-0.9892266E-02  (-0.4083359E-02)
 number of electron    1196.0000060 magnetization      -0.0000000
 augmentation part       73.5453938 magnetization      -0.0000000

 Broyden mixing:
  rms(total) = 0.27714E-01    rms(broyden)= 0.27696E-01
  rms(prec ) = 0.28132E-01
  weight for this iteration     100.00

 eigenvalues of (default mixing * dielectric matrix)
  average eigenvalue GAMMA=   0.6948
  0.6948  0.6948

 Free energy of the ion-electron system (eV)
  ---------------------------------------------------
  alpha Z        PSCENC =      2113.54737298
  Ewald energy   TEWEN  =    393050.91655041
  -Hartree energ DENC   =   -489479.44594847
  -exchange      EXHF   =         0.00000000
  -V(xc)+E(xc)   XCENC  =      5279.12731160
  PAW double counting   =    128839.59631697  -128157.60767403
  entropy T*S    EENTRO =        -0.00000000
  eigenvalues    EBANDS =    -18815.94642963
  atomic energy  EATOM  =    105838.90241102
  Solvation  Ediel_sol  =         0.00000000
  ---------------------------------------------------
  free energy    TOTEN  =     -1330.91008916 eV

  energy without entropy =    -1330.91008916  energy(sigma->0) =    -1330.91008916


--------------------------------------------------------------------------------------------------------




--------------------------------------- Iteration      1(   4)  ---------------------------------------


    POTLOK:  cpu time    0.2137: real time    0.2151
    SETDIJ:  cpu time    0.0214: real time    0.0214
     EDDAV:  cpu time   25.5743: real time   25.6535
       DOS:  cpu time    0.0007: real time    0.0006
    CHARGE:  cpu time    1.2350: real time    1.2381
    MIXING:  cpu time    0.0069: real time    0.0069
    --------------------------------------------
      LOOP:  cpu time   27.0519: real time   27.1358

 eigenvalue-minimisations  :  5568
 total energy-change (2. order) :-0.3528941E-04  (-0.2093597E-03)
 number of electron    1196.0000060 magnetization      -0.0000000
 augmentation part       73.5419128 magnetization      -0.0000000

 Broyden mixing:
  rms(total) = 0.22444E-01    rms(broyden)= 0.22442E-01
  rms(prec ) = 0.22747E-01
  weight for this iteration     100.00

 eigenvalues of (default mixing * dielectric matrix)
  average eigenvalue GAMMA=   0.6883
  0.7749  0.7749  0.5151

 Free energy of the ion-electron system (eV)
  ---------------------------------------------------
  alpha Z        PSCENC =      2113.54737298
  Ewald energy   TEWEN  =    393050.91655041
  -Hartree energ DENC   =   -489480.19518238
  -exchange      EXHF   =         0.00000000
  -V(xc)+E(xc)   XCENC  =      5279.19421471
  PAW double counting   =    128869.00728492  -128186.96339112
  entropy T*S    EENTRO =        -0.00000000
  eigenvalues    EBANDS =    -18815.31938500
  atomic energy  EATOM  =    105838.90241102
  Solvation  Ediel_sol  =         0.00000000
  ---------------------------------------------------
  free energy    TOTEN  =     -1330.91012445 eV

  energy without entropy =    -1330.91012445  energy(sigma->0) =    -1330.91012445


--------------------------------------------------------------------------------------------------------




--------------------------------------- Iteration      1(   5)  ---------------------------------------


    POTLOK:  cpu time    0.2124: real time    0.2140
    SETDIJ:  cpu time    0.0212: real time    0.0212
     EDDAV:  cpu time   29.6113: real time   29.6848
       DOS:  cpu time    0.0007: real time    0.0007
    CHARGE:  cpu time    1.2118: real time    1.2147
    MIXING:  cpu time    0.0068: real time    0.0068
    --------------------------------------------
      LOOP:  cpu time   31.0643: real time   31.1423

 eigenvalue-minimisations  :  6720
 total energy-change (2. order) :-0.6663264E-05  (-0.2075187E-04)
 number of electron    1196.0000060 magnetization       0.0000000
 augmentation part       73.5479281 magnetization      -0.0000000

 Broyden mixing:
  rms(total) = 0.18863E-01    rms(broyden)= 0.18863E-01
  rms(prec ) = 0.19119E-01
  weight for this iteration     100.00

 eigenvalues of (default mixing * dielectric matrix)
  average eigenvalue GAMMA=   0.7267
  0.9065  0.9065  0.5469  0.5469

 Free energy of the ion-electron system (eV)
  ---------------------------------------------------
  alpha Z        PSCENC =      2113.54737298
  Ewald energy   TEWEN  =    393050.91655041
  -Hartree energ DENC   =   -489480.26069292
  -exchange      EXHF   =         0.00000000
  -V(xc)+E(xc)   XCENC  =      5279.19817642
  PAW double counting   =    128887.02157798  -128204.94104203
  entropy T*S    EENTRO =        -0.00000000
  eigenvalues    EBANDS =    -18815.29448497
  atomic energy  EATOM  =    105838.90241102
  Solvation  Ediel_sol  =         0.00000000
  ---------------------------------------------------
  free energy    TOTEN  =     -1330.91013112 eV

  energy without entropy =    -1330.91013112  energy(sigma->0) =    -1330.91013112


--------------------------------------------------------------------------------------------------------




--------------------------------------- Iteration      1(   6)  ---------------------------------------


    POTLOK:  cpu time    0.2123: real time    0.2130
    SETDIJ:  cpu time    0.0213: real time    0.0214
     EDDAV:  cpu time   30.2581: real time   30.3336
       DOS:  cpu time    0.0006: real time    0.0006
    CHARGE:  cpu time    1.2133: real time    1.2163
    MIXING:  cpu time    0.0073: real time    0.0073
    --------------------------------------------
      LOOP:  cpu time   31.7129: real time   31.7921

 eigenvalue-minimisations  :  6912
 total energy-change (2. order) :-0.1195434E-04  (-0.2371481E-05)
 number of electron    1196.0000060 magnetization       0.0000000
 augmentation part       73.5496266 magnetization       0.0000000

 Broyden mixing:
  rms(total) = 0.16314E-01    rms(broyden)= 0.16314E-01
  rms(prec ) = 0.16546E-01
  weight for this iteration     100.00

 eigenvalues of (default mixing * dielectric matrix)
  average eigenvalue GAMMA=   0.7952
  1.1243  1.1243  0.5225  0.6023  0.6023

 Free energy of the ion-electron system (eV)
  ---------------------------------------------------
  alpha Z        PSCENC =      2113.54737298
  Ewald energy   TEWEN  =    393050.91655041
  -Hartree energ DENC   =   -489480.40297286
  -exchange      EXHF   =         0.00000000
  -V(xc)+E(xc)   XCENC  =      5279.20626807
  PAW double counting   =    128901.32054937  -128219.22846986
  entropy T*S    EENTRO =        -0.00000000
  eigenvalues    EBANDS =    -18815.17185219
  atomic energy  EATOM  =    105838.90241102
  Solvation  Ediel_sol  =         0.00000000
  ---------------------------------------------------
  free energy    TOTEN  =     -1330.91014307 eV

  energy without entropy =    -1330.91014307  energy(sigma->0) =    -1330.91014307


--------------------------------------------------------------------------------------------------------




--------------------------------------- Iteration      1(   7)  ---------------------------------------


    POTLOK:  cpu time    0.2126: real time    0.2132
    SETDIJ:  cpu time    0.0214: real time    0.0215
     EDDAV:  cpu time   29.4185: real time   29.4941
       DOS:  cpu time    0.0007: real time    0.0007
    CHARGE:  cpu time    1.2015: real time    1.2046
    MIXING:  cpu time    0.0077: real time    0.0077
    --------------------------------------------
      LOOP:  cpu time   30.8624: real time   30.9417

 eigenvalue-minimisations  :  6656
 total energy-change (2. order) :-0.7921990E-05  (-0.2269052E-05)
 number of electron    1196.0000060 magnetization       0.0000000
 augmentation part       73.5507155 magnetization       0.0000000

 Broyden mixing:
  rms(total) = 0.13105E-01    rms(broyden)= 0.13105E-01
  rms(prec ) = 0.13289E-01
  weight for this iteration     100.00

 eigenvalues of (default mixing * dielectric matrix)
  average eigenvalue GAMMA=   0.8544
  1.3359  1.3359  0.6815  0.6815  0.5459  0.5459

 Free energy of the ion-electron system (eV)
  ---------------------------------------------------
  alpha Z        PSCENC =      2113.54737298
  Ewald energy   TEWEN  =    393050.91655041
  -Hartree energ DENC   =   -489480.46381389
  -exchange      EXHF   =         0.00000000
  -V(xc)+E(xc)   XCENC  =      5279.21150135
  PAW double counting   =    128918.40287620  -128236.29927528
  entropy T*S    EENTRO =        -0.00000000
  eigenvalues    EBANDS =    -18815.12777378
  atomic energy  EATOM  =    105838.90241102
  Solvation  Ediel_sol  =         0.00000000
  ---------------------------------------------------
  free energy    TOTEN  =     -1330.91015099 eV

  energy without entropy =    -1330.91015099  energy(sigma->0) =    -1330.91015099


--------------------------------------------------------------------------------------------------------




--------------------------------------- Iteration      1(   8)  ---------------------------------------


    POTLOK:  cpu time    0.2130: real time    0.2145
    SETDIJ:  cpu time    0.0214: real time    0.0214
     EDDAV:  cpu time   27.7428: real time   27.8225
       DOS:  cpu time    0.0010: real time    0.0006
    CHARGE:  cpu time    1.2085: real time    1.2118
    MIXING:  cpu time    0.0078: real time    0.0079
    --------------------------------------------
      LOOP:  cpu time   29.1944: real time   29.2787

 eigenvalue-minimisations  :  6176
 total energy-change (2. order) :-0.6074406E-05  (-0.1689356E-05)
 number of electron    1196.0000060 magnetization       0.0000000
 augmentation part       73.5522243 magnetization       0.0000000

 Broyden mixing:
  rms(total) = 0.10748E-01    rms(broyden)= 0.10748E-01
  rms(prec ) = 0.10892E-01
  weight for this iteration     100.00

 eigenvalues of (default mixing * dielectric matrix)
  average eigenvalue GAMMA=   0.9040
  1.5555  1.5555  0.7620  0.7620  0.5310  0.5809  0.5809

 Free energy of the ion-electron system (eV)
  ---------------------------------------------------
  alpha Z        PSCENC =      2113.54737298
  Ewald energy   TEWEN  =    393050.91655041
  -Hartree energ DENC   =   -489480.51486483
  -exchange      EXHF   =         0.00000000
  -V(xc)+E(xc)   XCENC  =      5279.21493035
  PAW double counting   =    128931.13728011  -128249.02413186
  entropy T*S    EENTRO =        -0.00000000
  eigenvalues    EBANDS =    -18815.08970524
  atomic energy  EATOM  =    105838.90241102
  Solvation  Ediel_sol  =         0.00000000
  ---------------------------------------------------
  free energy    TOTEN  =     -1330.91015707 eV

  energy without entropy =    -1330.91015707  energy(sigma->0) =    -1330.91015707


--------------------------------------------------------------------------------------------------------




--------------------------------------- Iteration      1(   9)  ---------------------------------------


    POTLOK:  cpu time    0.2131: real time    0.2139
    SETDIJ:  cpu time    0.0213: real time    0.0213
     EDDAV:  cpu time   20.3510: real time   20.4016
       DOS:  cpu time    0.0010: real time    0.0006
    CHARGE:  cpu time    1.2021: real time    1.2055
    MIXING:  cpu time    0.0082: real time    0.0082
    --------------------------------------------
      LOOP:  cpu time   21.7967: real time   21.8510

 eigenvalue-minimisations  :  4096
 total energy-change (2. order) :-0.4707923E-05  (-0.4329526E-06)
 number of electron    1196.0000060 magnetization       0.0000000
 augmentation part       73.5530392 magnetization       0.0000000

 Broyden mixing:
  rms(total) = 0.92650E-02    rms(broyden)= 0.92650E-02
  rms(prec ) = 0.93915E-02
  weight for this iteration     100.00

 eigenvalues of (default mixing * dielectric matrix)
  average eigenvalue GAMMA=   1.0488
  2.0509  2.0509  0.9112  0.9112  0.6577  0.6577  0.5756  0.5756

 Free energy of the ion-electron system (eV)
  ---------------------------------------------------
  alpha Z        PSCENC =      2113.54737298
  Ewald energy   TEWEN  =    393050.91655041
  -Hartree energ DENC   =   -489480.54386612
  -exchange      EXHF   =         0.00000000
  -V(xc)+E(xc)   XCENC  =      5279.21637780
  PAW double counting   =    128939.22976499  -128257.11450190
  entropy T*S    EENTRO =        -0.00000000
  eigenvalues    EBANDS =    -18815.06427096
  atomic energy  EATOM  =    105838.90241102
  Solvation  Ediel_sol  =         0.00000000
  ---------------------------------------------------
  free energy    TOTEN  =     -1330.91016177 eV

  energy without entropy =    -1330.91016177  energy(sigma->0) =    -1330.91016177


--------------------------------------------------------------------------------------------------------




--------------------------------------- Iteration      1(  10)  ---------------------------------------


    POTLOK:  cpu time    0.2136: real time    0.2142
    SETDIJ:  cpu time    0.0212: real time    0.0213
     EDDAV:  cpu time   28.6774: real time   28.7548
       DOS:  cpu time    0.0006: real time    0.0006
    CHARGE:  cpu time    1.2039: real time    1.2113
    MIXING:  cpu time    0.0087: real time    0.0087
    --------------------------------------------
      LOOP:  cpu time   30.1253: real time   30.2109

 eigenvalue-minimisations  :  6464
 total energy-change (2. order) :-0.5543203E-05  (-0.2292669E-05)
 number of electron    1196.0000060 magnetization       0.0000000
 augmentation part       73.5542537 magnetization       0.0000000

 Broyden mixing:
  rms(total) = 0.57143E-02    rms(broyden)= 0.57142E-02
  rms(prec ) = 0.57960E-02
  weight for this iteration     100.00

 eigenvalues of (default mixing * dielectric matrix)
  average eigenvalue GAMMA=   1.1197
  2.4041  2.4041  1.0571  1.0571  0.6939  0.6939  0.5939  0.5939  0.5789

 Free energy of the ion-electron system (eV)
  ---------------------------------------------------
  alpha Z        PSCENC =      2113.54737298
  Ewald energy   TEWEN  =    393050.91655041
  -Hartree energ DENC   =   -489480.61121850
  -exchange      EXHF   =         0.00000000
  -V(xc)+E(xc)   XCENC  =      5279.21998201
  PAW double counting   =    128958.01576291  -128275.89281519
  entropy T*S    EENTRO =        -0.00000000
  eigenvalues    EBANDS =    -18815.00821295
  atomic energy  EATOM  =    105838.90241102
  Solvation  Ediel_sol  =         0.00000000
  ---------------------------------------------------
  free energy    TOTEN  =     -1330.91016732 eV

  energy without entropy =    -1330.91016732  energy(sigma->0) =    -1330.91016732


--------------------------------------------------------------------------------------------------------




--------------------------------------- Iteration      1(  11)  ---------------------------------------


    POTLOK:  cpu time    0.2123: real time    0.2130
    SETDIJ:  cpu time    0.0212: real time    0.0212
     EDDAV:  cpu time   29.5795: real time   29.6627
       DOS:  cpu time    0.0010: real time    0.0006
    CHARGE:  cpu time    1.2415: real time    1.2450
    MIXING:  cpu time    0.0101: real time    0.0101
    --------------------------------------------
      LOOP:  cpu time   31.0656: real time   31.1527

 eigenvalue-minimisations  :  6720
 total energy-change (2. order) :-0.4625559E-05  (-0.3133654E-05)
 number of electron    1196.0000060 magnetization       0.0000000
 augmentation part       73.5560393 magnetization       0.0000000

 Broyden mixing:
[...]
   0.337E+02 0.287E+02 -.140E+04   -.374E+02 -.304E+02 0.140E+04   0.365E+01 0.173E+01 -.471E+01   0.190E-03 -.644E-03 -.337E-03
   0.581E+02 0.295E+02 -.135E+04   -.616E+02 -.317E+02 0.135E+04   0.350E+01 0.217E+01 -.396E+01   0.271E-03 -.683E-03 -.240E-03
   -.540E+01 0.733E+02 -.105E+04   0.498E+01 -.773E+02 0.104E+04   0.426E+00 0.399E+01 0.421E+01   0.364E-03 0.231E-03 -.138E-02
   -.149E+02 0.162E+02 -.138E+04   0.123E+02 -.184E+02 0.139E+04   0.259E+01 0.219E+01 -.465E+01   0.141E-03 -.527E-03 -.341E-03
   -.293E+02 -.379E+02 -.138E+04   0.326E+02 0.391E+02 0.139E+04   -.327E+01 -.122E+01 -.303E+01   -.245E-03 0.166E-03 -.832E-03
   0.375E+02 -.205E+02 -.139E+04   -.341E+02 0.214E+02 0.139E+04   -.342E+01 -.950E+00 -.407E+01   -.295E-03 0.105E-03 -.364E-03
   -.484E+01 -.642E+02 -.136E+04   0.861E+01 0.656E+02 0.137E+04   -.377E+01 -.145E+01 -.388E+01   -.136E-03 -.901E-04 -.360E-03
   -.135E+03 -.645E+01 -.122E+04   0.139E+03 0.855E+01 0.122E+04   -.398E+01 -.211E+01 -.145E+00   0.436E-03 0.342E-03 -.762E-03
   -.351E+02 -.444E+01 -.162E+04   0.356E+02 0.777E+01 0.163E+04   -.468E+00 -.334E+01 -.848E+01   0.308E-03 0.642E-04 -.366E-03
   0.348E+02 -.336E+02 -.159E+04   -.343E+02 0.375E+02 0.160E+04   -.487E+00 -.397E+01 -.834E+01   0.319E-03 0.194E-03 -.110E-03
   -.117E+01 0.840E+02 -.154E+04   0.810E+01 -.798E+02 0.155E+04   -.694E+01 -.424E+01 -.105E+02   -.121E-03 -.304E-03 -.275E-03
   -.965E+02 -.107E+03 -.149E+04   0.960E+02 0.111E+03 0.149E+04   0.467E+00 -.350E+01 -.624E+01   0.266E-03 0.917E-04 -.201E-03
   -.377E+02 0.659E+01 -.167E+04   0.394E+02 -.799E+01 0.168E+04   -.171E+01 0.142E+01 -.111E+02   -.501E-03 0.214E-03 -.138E-03
   0.416E+02 0.466E+02 -.166E+04   -.402E+02 -.488E+02 0.167E+04   -.140E+01 0.213E+01 -.114E+02   -.543E-03 0.136E-03 -.262E-03
   0.505E+02 -.746E+02 -.154E+04   -.478E+02 0.743E+02 0.155E+04   -.262E+01 0.302E+00 -.115E+02   -.382E-03 0.370E-03 -.200E-04
   -.106E+03 0.823E+02 -.161E+04   0.109E+03 -.841E+02 0.162E+04   -.285E+01 0.174E+01 -.115E+02   -.124E-03 0.516E-04 0.414E-04
   -.612E+02 -.397E+02 -.181E+04   0.608E+02 0.436E+02 0.183E+04   0.503E+00 -.387E+01 -.183E+02   -.191E-03 -.187E-03 -.840E-03
   0.237E+02 -.482E+02 -.182E+04   -.234E+02 0.521E+02 0.184E+04   -.244E+00 -.395E+01 -.183E+02   0.142E-04 -.137E-03 -.806E-03
   0.253E+03 0.957E+01 -.157E+04   -.263E+03 -.700E+01 0.158E+04   0.997E+01 -.259E+01 -.579E+01   -.773E-03 0.105E-03 0.737E-04
   -.335E+02 -.780E+02 -.179E+04   0.337E+02 0.825E+02 0.181E+04   -.178E+00 -.455E+01 -.184E+02   0.512E-04 -.341E-03 -.648E-03
   -.182E+03 -.137E+03 -.168E+04   0.172E+03 0.123E+03 0.166E+04   0.951E+01 0.146E+02 0.176E+02   0.596E-03 0.827E-03 0.855E-03
   -.138E+03 0.268E+03 -.177E+04   0.146E+03 -.282E+03 0.178E+04   -.767E+01 0.141E+02 -.122E+02   0.818E-04 0.102E-03 0.144E-03
   0.281E+02 0.601E+02 -.232E+03   -.300E+02 -.643E+02 0.234E+03   0.193E+01 0.426E+01 -.208E+01   0.666E-04 0.311E-03 0.388E-04
   -.308E+02 -.388E+02 -.232E+03   0.339E+02 0.402E+02 0.236E+03   -.304E+01 -.144E+01 -.433E+01   -.462E-05 -.118E-03 0.324E-04
   -.637E+02 -.689E+02 -.330E+03   0.673E+02 0.742E+02 0.335E+03   -.358E+01 -.534E+01 -.532E+01   -.521E-04 -.297E-04 0.542E-04
   0.486E+02 -.581E+02 -.218E+03   -.525E+02 0.619E+02 0.217E+03   0.393E+01 -.375E+01 0.504E+00   0.294E-04 -.768E-04 0.835E-04
   -.259E+02 -.361E+02 -.215E+03   0.289E+02 0.365E+02 0.211E+03   -.305E+01 -.402E+00 0.437E+01   0.365E-05 -.618E-04 0.170E-03
   0.564E+02 -.647E+00 -.227E+03   -.596E+02 0.547E+00 0.232E+03   0.317E+01 0.106E+00 -.437E+01   0.127E-03 -.486E-04 0.292E-05
   0.698E+02 0.429E+01 -.206E+03   -.732E+02 -.534E+01 0.202E+03   0.334E+01 0.105E+01 0.411E+01   0.850E-04 -.146E-04 0.194E-03
   -.472E+02 -.809E+01 -.236E+03   0.508E+02 0.951E+01 0.239E+03   -.367E+01 -.144E+01 -.341E+01   -.217E-03 0.529E-05 -.895E-04
   0.185E+02 -.146E+03 -.888E+03   -.189E+02 0.145E+03 0.888E+03   0.350E+00 0.781E+00 -.414E+00   0.961E-04 -.429E-03 0.437E-03
   -.784E+01 0.572E+02 -.939E+03   0.107E+02 -.577E+02 0.933E+03   -.287E+01 0.509E+00 0.612E+01   -.662E-04 0.563E-03 0.630E-03
   0.138E+03 -.163E+02 -.888E+03   -.138E+03 0.157E+02 0.889E+03   -.369E-01 0.611E+00 -.607E+00   0.509E-03 -.480E-03 0.558E-03
 -----------------------------------------------------------------------------------------------
   0.134E+02 0.291E+00 0.630E+02   0.284E-13 -.121E-12 -.487E-10   -.135E+02 -.504E+00 -.632E+02   0.116E-02 0.296E-02 0.310E-01
 
 
 POSITION                                       TOTAL-FORCE (eV/Angst)
 -----------------------------------------------------------------------------------
      0.99046      3.89727      0.91670        -1.483659     -1.866731     -0.709081
      4.22806      9.97101      0.91670        -1.485961     -1.885713     -0.769785
      8.54576      3.89727      0.91670        -1.351604     -1.930353     -0.794704
     11.78336      9.97101      0.91670        -1.357089     -1.842988     -0.779235
      0.16045     10.12553      1.16818        -0.223190      1.667013      0.328161
      4.47815      4.05179      1.16818        -0.194704      1.716952      0.186442
      7.71575     10.12553      1.16818        -0.103676      1.760484      0.162109
     12.03345      4.05179      1.16818        -0.141081      1.817708      0.500306
      3.52055      0.82336      1.36715        -0.849368     -0.872830      1.535182
      6.75815      6.89709      1.36715        -0.831239     -0.876234      1.537950
     11.07585      0.82336      1.36715        -0.770931     -0.813128      1.713834
     14.31345      6.89709      1.36715        -0.959538     -0.965912      1.761183
      2.69053      7.05173      1.61862         1.480145      0.468622     -2.507368
      7.00822      0.97799      1.61862         1.590886      0.438986     -2.515002
     10.24583      7.05173      1.61862         1.742375      0.390145     -2.466597
     14.56352      0.97799      1.61862         1.533458      0.514196     -2.477048
      0.54053     11.93832      4.09741        -0.004027      0.003041     -0.000932
      4.86145      5.87494      4.10153         0.001486     -0.001926      0.000150
      8.11954     11.95486      4.10585         0.000993      0.001719     -0.001981
     12.40423      5.86011      4.15139         0.003309      0.001660     -0.007523
      0.81542      6.00856      4.37581        -0.000258     -0.002441      0.001019
      4.04846     12.08491      4.36675         0.000568      0.002956      0.000443
      8.37053      5.98265      4.36347        -0.001201     -0.002432     -0.000572
     11.60043     12.09224      4.37813        -0.000109      0.003219     -0.002562
     -0.17882      2.79630      4.58927        -0.002444      0.003828      0.002563
      3.03908      8.86562      4.58593         0.000990     -0.000704     -0.001672
      7.36587      2.77716      4.57329        -0.000784      0.000435     -0.002081
     10.65719      8.86798      4.57651        -0.004242      0.002478     -0.010174
      3.35929      2.93721      4.81065         0.002981     -0.002832      0.003723
      6.57296      9.02311      4.79374         0.004815      0.001256     -0.002746
     10.93234      2.97885      4.88770         0.001338     -0.002594     -0.006240
     14.14481      8.99268      4.84447        -0.005279      0.002451     -0.007082
      1.16566      7.78724      7.52939         0.002562      0.003059      0.006529
      5.45961      1.68841      7.50339         0.002126      0.002860     -0.002884
      8.72260      7.85234      7.30580        -0.006367      0.002988     -0.002442
     13.06022      1.68821      7.52605         0.003244     -0.003806     -0.000938
      1.48409      1.95170      7.48888        -0.002508     -0.001079     -0.005261
      4.69931      8.01093      7.49518         0.007590     -0.001734     -0.000712
      8.98139      1.91204      7.51660        -0.004660     -0.006207      0.001116
     12.25615      8.03887      7.62081        -0.000287      0.000162      0.001612
     -0.55634     10.79615      7.77667         0.003391      0.005075      0.000643
      3.74036      4.71671      7.79876         0.001442     -0.001387     -0.002627
      6.96719     10.76628      7.78820        -0.002476     -0.001268      0.001084
     11.40528      4.64771      7.99733         0.002618     -0.000964     -0.004682
     -0.26838      4.94259      8.05052        -0.000389     -0.010815      0.002559
      2.92975     11.00995      8.05660        -0.000052      0.003073      0.002301
      7.22139      4.84920      8.00123        -0.004249     -0.004255      0.002561
     10.49303     11.02447      8.06122         0.000320      0.004589      0.001374
      9.92961      6.63957     10.11828         0.002896     -0.009262     -0.001096
      0.18233      2.09605      0.00000         0.268439      0.965087      1.280763
      3.41993      8.16979      0.00000         0.285866      0.992107      1.282679
      7.73763      2.09605      0.00000         0.257165      0.976390      1.296109
     10.97523      8.16979      0.00000         0.245199      0.991546      1.298666
      2.77584      5.24249      0.37900        -0.003596     -0.928012      0.591765
      6.01345     11.31622      0.37900        -0.036599     -0.929112      0.597309
     10.33114      5.24249      0.37900        -0.103937     -0.923092      0.587228
     13.56875     11.31622      0.37900        -0.046252     -0.929694      0.582475
      2.16153     10.82255      0.59691         0.406040      1.203851     -0.181401
      6.47922      4.74881      0.59691         0.393679      1.220412     -0.179972
      9.71683     10.82255      0.59691         0.354277      1.181469     -0.183634
     14.03452      4.74881      0.59691         0.398555      1.175588     -0.209665
      2.73983      2.74654      1.05910         1.187525     -1.032652     -0.429754
      5.97744      8.82028      1.05910         1.166527     -1.053783     -0.403932
     10.29513      2.74654      1.05910         1.120423     -1.025753     -0.451380
     13.53273      8.82028      1.05910         1.136626     -1.009222     -0.447733
      0.94100      8.20246      1.47622        -1.107740     -0.304954     -0.903244
      5.25870      2.12872      1.47622        -1.121005     -0.310326     -0.887913
      8.49630      8.20246      1.47622        -1.183166     -0.320685     -0.892129
     12.81400      2.12872      1.47622        -1.142358     -0.326771     -0.906499
      1.51931      0.12646      1.93841         0.354495     -0.084735      0.220321
      4.75691      6.20019      1.93841         0.428030     -0.014602      0.232900
      9.07461      0.12646      1.93841         0.410387     -0.042681      0.260527
     12.31221      6.20019      1.93841         0.352169     -0.092402      0.364109
      0.90515      5.70640      2.15632        -0.367779      0.329980      0.129619
      4.14276     11.78014      2.15632        -0.355253      0.319474      0.150934
      8.46045      5.70640      2.15632        -0.410298      0.301129      0.190701
     11.69806     11.78014      2.15632        -0.395668      0.316077      0.177194
      0.26091      2.77910      2.53532         0.210621      0.395740      0.528941
      3.49852      8.85284      2.53532         0.232320      0.421913      0.604338
      7.81621      2.77910      2.53532         0.222232      0.391198      0.473504
     11.05382      8.85284      2.53532         0.264472      0.418722      0.487187
     -0.20906     10.11547      3.20435        -0.004547      0.004410      0.002405
      4.11586      4.05565      3.19972         0.001564      0.009665     -0.001041
      7.35618     10.12714      3.19941         0.003578      0.003424      0.002587
     11.66688      4.04061      3.21415         0.003334     -0.003045      0.004514
      3.39493      1.13364      3.50354        -0.001419     -0.005722      0.000055
      6.63676      7.20894      3.51635        -0.001200     -0.007644      0.002102
     10.95610      1.13821      3.52240        -0.001105      0.005299     -0.009153
     14.19271      7.20753      3.52258        -0.006941     -0.000998      0.003968
      2.81250      6.70814      3.84766         0.006009     -0.009800     -0.007978
      7.14113      0.61709      3.85089        -0.007261      0.006646      0.005368
     10.36175      6.70599      3.85160        -0.000735     -0.001808      0.001521
     14.68060      0.63459      3.85344        -0.000688     -0.010751      0.010105
      2.28779     10.81297      4.33987         0.004934     -0.001410      0.002995
      6.59807      4.72969      4.33136        -0.002138      0.004595      0.003259
      9.84558     10.80112      4.33980        -0.000618      0.000918     -0.006391
     14.16431      4.74202      4.36145         0.000539     -0.002129      0.001207
      1.60008      4.06770      4.61286        -0.004631      0.001917      0.006148
      4.82628     10.14236      4.63569        -0.007586     -0.006277      0.004541
      9.12981      4.06618      4.65583         0.002001      0.003866     -0.000621
     12.39235     10.15709      4.64228         0.002345     -0.001274      0.000941
      1.05472      8.15107      5.14623         0.005012      0.003940      0.003026
      5.36318      2.05582      5.09729        -0.002686     -0.005105      0.002788
      8.62326      8.14695      5.12699         0.003087     -0.000230     -0.001915
     12.93024      2.06872      5.18070         0.008652      0.003798     -0.001201
      1.60605      1.58051      5.36657         0.002650      0.000353      0.007252
      4.81885      7.66428      5.36969        -0.001592     -0.002592     -0.002600
      9.15111      1.59160      5.39345         0.000188     -0.003599     -0.002643
     12.37435      7.67385      5.39628         0.007463      0.009349     -0.000293
     -0.25074     10.85097      5.74996        -0.008334      0.013103     -0.009819
      4.05959      4.80558      5.76692         0.003661      0.000687     -0.001616
      7.30504     10.85103      5.75591        -0.005959     -0.004447     -0.003057
     11.60497      4.78285      5.78196        -0.000851      0.010643      0.004264
      0.51905      5.97794      6.44449        -0.000549      0.005431     -0.006096
      3.68464     12.05196      6.43184         0.003659      0.000999      0.002403
      7.95406      5.99305      6.43657        -0.004423      0.004041     -0.002124
     11.19020     12.06814      6.43629         0.001869      0.005219      0.004569
      2.98435      9.11239      6.77467        -0.006642     -0.002048     -0.002759
      7.23462      3.02348      6.73371         0.003034     -0.004407     -0.000329
     10.53019      9.10066      6.77902         0.007569     -0.003678      0.002038
     -0.19259      3.04712      6.74743         0.005358      0.006437     -0.006942
      3.48239      2.59674      6.97388        -0.004797     -0.005198     -0.002166
      6.70030      8.64513      6.96175        -0.004381      0.002975      0.001549
     11.00603      2.61461      7.10214        -0.007598      0.001044      0.001119
     14.26053      8.64332      7.02154        -0.005549      0.004618      0.004011
      3.01348      6.73129      7.89465        -0.003034      0.007429      0.000912
      7.28654      0.62333      7.83543         0.000391      0.000488     -0.006367
     10.46965      6.70385      7.82735         0.009113     -0.003197      0.001352
     14.89214      0.67036      7.86971         0.001729     -0.008008     -0.001041
      2.21753      0.04088      7.92893        -0.002697      0.000449      0.000255
      5.47173      6.12767      8.00593        -0.003210     -0.005156      0.003643
      8.64095     12.14283      8.00113         0.005477      0.007362     -0.000397
     13.01059      6.08165      7.87282        -0.006221     -0.001452     -0.006577
      1.73404      3.89709      8.42473        -0.005200      0.003400     -0.001789
      4.94627      9.94988      8.41578         0.000230     -0.000104     -0.005108
      8.98176      3.75805      8.49424        -0.008482     -0.004472      0.009096
     12.54769     10.11781      8.30177        -0.001393      0.004623      0.001734
      1.12898      9.71088      8.54074         0.000921      0.005607     -0.002620
      5.42443      3.62449      8.51633         0.001437     -0.002460      0.006273
      8.64631      9.63141      8.49178        -0.000141     -0.011159      0.010642
     13.14513      3.57202      8.52205        -0.011627      0.001512      0.003702
      0.40270      6.60954      8.98454         0.007662      0.000218      0.003623
      4.72739      0.51186      8.97990        -0.002018     -0.001535      0.008922
      8.13627      6.55415      9.04973        -0.001381      0.001888      0.000410
     12.28320      0.51018      8.98678         0.003001     -0.001876     -0.010244
     11.43038      8.13509      9.74008        -0.015897      0.006063      0.009232
     10.97654      5.02209     10.00122         0.000085      0.005810      0.002418
      8.76479      6.32351     12.64605        -0.004503     -0.004041     -0.004606
      9.27065     10.03190     12.82408         0.018579     -0.001175      0.003259
     11.84315      8.75463     10.36370        -0.003692      0.007492     -0.000697
      7.86189     10.49972     11.84754         0.007253      0.000510      0.004386
      9.29611      9.82297     11.05832        -0.001181     -0.003847     -0.004211
      7.44414      8.32267     13.01279         0.006511      0.006227      0.009242
      7.41595      8.12387     11.26799        -0.003211      0.004057      0.013944
      9.96668      7.56630     12.93502         0.000941     -0.013978      0.000479
      8.65909      9.74862     11.95486        -0.001292     -0.000068     -0.000563
      9.19236      7.25120     12.21118        -0.003598     -0.006019      0.001143
      8.09171      8.33559     12.11773         0.011614     -0.009373      0.003734
 -----------------------------------------------------------------------------------
    total drift:                               -0.120446     -0.210457     -0.116011


--------------------------------------------------------------------------------------------------------



  FREE ENERGIE OF THE ION-ELECTRON SYSTEM (eV)
  ---------------------------------------------------
  free  energy   TOTEN  =     -1349.90071804 eV

  energy  without entropy=    -1349.90071804  energy(sigma->0) =    -1349.90071804
 


--------------------------------------------------------------------------------------------------------


    POTLOK:  cpu time    0.2346: real time    0.2352


--------------------------------------------------------------------------------------------------------


     LOOP+:  cpu time  386.2152: real time  387.2693
    4ORBIT:  cpu time    0.0000: real time    0.0000

 total amount of memory used by VASP MPI-rank0   174551. kBytes
=======================================================================

   base      :      30000. kBytes
   nonlr-proj:      11335. kBytes
   fftplans  :       9317. kBytes
   grid      :      26149. kBytes
   one-center:        839. kBytes
   wavefun   :      96911. kBytes
 
  
  
 General timing and accounting informations for this job:
 ========================================================
  
                  Total CPU time used (sec):      402.467
                            User time (sec):      386.716
                          System time (sec):       15.751
                         Elapsed time (sec):      403.959
  
                   Maximum memory used (kb):      417996.
                   Average memory used (kb):           0.
  
                          Minor page faults:        90264
                          Major page faults:            0
                 Voluntary context switches:          956
