 vasp.5.4.4.18Apr17-6-g9f103f2a35 (build Oct 13 2017 11:24:24) complex          
  
 executed on             LinuxIFC date 2021.11.07  13:24:37
 running on   48 total cores
 distrk:  each k-point on   48 cores,    1 groups
 distr:  one band on NCORES_PER_BAND=   6 cores,    8 groups


--------------------------------------------------------------------------------------------------------


 INCAR:
 POTCAR:    PAW_PBE Zr_sv 04Jan2005               
 POTCAR:    PAW_PBE O 08Apr2002                   
 POTCAR:    PAW_PBE H 15Jun2001                   
 POTCAR:    PAW_PBE C 08Apr2002                   
 POTCAR:    PAW_PBE Zr_sv 04Jan2005               
   VRHFIN =Zr: 4s4p5s4d                                                         
   LEXCH  = PE                                                                  
   EATOM  =  1284.2219 eV,   94.3876 Ry                                         
                                                                                
   TITEL  = PAW_PBE Zr_sv 04Jan2005                                             
   LULTRA =        F    use ultrasoft PP ?                                      
   IUNSCR =        1    unscreen: 0-lin 1-nonlin 2-no                           
   RPACOR =    2.200    partial core radius                                     
   POMASS =   91.224; ZVAL   =   12.000    mass and valenz                      
   RCORE  =    2.500    outmost cutoff radius                                   
   RWIGS  =    3.070; RWIGS  =    1.625    wigner-seitz radius (au A)           
   ENMAX  =  229.898; ENMIN  =  172.424 eV                                      
   ICORE  =        3    local potential                                         
   LCOR   =        T    correct aug charges                                     
   LPAW   =        T    paw PP                                                  
   EAUG   =  461.257                                                            
   DEXC   =    0.000                                                            
   RMAX   =    2.561    core radius for proj-oper                               
   RAUG   =    1.300    factor for augmentation sphere                          
   RDEP   =    2.597    radius for radial grids                                 
   RDEPT  =    2.007    core radius for aug-charge                              
                                                                                
   Atomic configuration                                                         
   11 entries                                                                   
     n  l   j            E        occ.                                          
     1  0  0.50    -17820.0161   2.0000                                         
     2  0  0.50     -2467.0882   2.0000                                         
     2  1  1.50     -2199.6095   6.0000                                         
     3  0  0.50      -402.4863   2.0000                                         
     3  1  1.50      -315.3675   6.0000                                         
     3  2  2.50      -172.4472  10.0000                                         
     4  0  0.50       -52.4146   2.0000                                         
     5  0  0.50        -3.8421   1.0000                                         
     4  1  1.50       -30.5054   6.0000                                         
     4  2  2.50        -2.3341   3.0000                                         
     4  3  2.50        -1.3606   0.0000                                         
   Description                                                                  
     l       E           TYP  RCUT    TYP  RCUT                                 
     0    -52.4145962     23  2.200                                             
     0     -3.8421270     23  2.500                                             
     1    -30.5053914     23  2.200                                             
     1     20.4087390     23  2.200                                             
     2     -2.3340816     23  2.500                                             
     2     -0.6120942     23  2.500                                             
     3     -4.0817478     23  2.500                                             
  local pseudopotential read in
  partial core-charges read in
  partial kinetic energy density read in
  atomic valenz-charges read in
  non local Contribution for L=           0  read in
    real space projection operators read in
  non local Contribution for L=           0  read in
    real space projection operators read in
  non local Contribution for L=           1  read in
    real space projection operators read in
  non local Contribution for L=           1  read in
    real space projection operators read in
  non local Contribution for L=           2  read in
    real space projection operators read in
  non local Contribution for L=           2  read in
    real space projection operators read in
    PAW grid and wavefunctions read in
 
   number of l-projection  operators is LMAX  =           6
   number of lm-projection operators is LMMAX =          18
 
 POTCAR:    PAW_PBE O 08Apr2002                   
   VRHFIN =O: s2p4                                                              
   LEXCH  = PE                                                                  
   EATOM  =   432.3788 eV,   31.7789 Ry                                         
                                                                                
   TITEL  = PAW_PBE O 08Apr2002                                                 
   LULTRA =        F    use ultrasoft PP ?                                      
   IUNSCR =        1    unscreen: 0-lin 1-nonlin 2-no                           
   RPACOR =    1.200    partial core radius                                     
   POMASS =   16.000; ZVAL   =    6.000    mass and valenz                      
   RCORE  =    1.520    outmost cutoff radius                                   
   RWIGS  =    1.550; RWIGS  =    0.820    wigner-seitz radius (au A)           
   ENMAX  =  400.000; ENMIN  =  300.000 eV                                      
   ICORE  =        2    local potential                                         
   LCOR   =        T    correct aug charges                                     
   LPAW   =        T    paw PP                                                  
   EAUG   =  605.392                                                            
   DEXC   =    0.000                                                            
   RMAX   =    1.553    core radius for proj-oper                               
   RAUG   =    1.300    factor for augmentation sphere                          
   RDEP   =    1.550    radius for radial grids                                 
   RDEPT  =    1.329    core radius for aug-charge                              
                                                                                
   Atomic configuration                                                         
    4 entries                                                                   
     n  l   j            E        occ.                                          
     1  0  0.50      -514.6923   2.0000                                         
     2  0  0.50       -23.9615   2.0000                                         
     2  1  0.50        -9.0305   4.0000                                         
     3  2  1.50        -9.5241   0.0000                                         
   Description                                                                  
     l       E           TYP  RCUT    TYP  RCUT                                 
     0    -23.9615318     23  1.200                                             
     0     -9.5240782     23  1.200                                             
     1     -9.0304911     23  1.520                                             
     1      8.1634956     23  1.520                                             
     2     -9.5240782      7  1.500                                             
  local pseudopotential read in
  partial core-charges read in
  partial kinetic energy density read in
  kinetic energy density of atom read in
  atomic valenz-charges read in
  non local Contribution for L=           0  read in
    real space projection operators read in
  non local Contribution for L=           0  read in
    real space projection operators read in
  non local Contribution for L=           1  read in
    real space projection operators read in
  non local Contribution for L=           1  read in
    real space projection operators read in
    PAW grid and wavefunctions read in
 
   number of l-projection  operators is LMAX  =           4
   number of lm-projection operators is LMMAX =           8
 
 POTCAR:    PAW_PBE H 15Jun2001                   
   VRHFIN =H: ultrasoft test                                                    
   LEXCH  = PE                                                                  
   EATOM  =    12.4884 eV,    0.9179 Ry                                         
                                                                                
   TITEL  = PAW_PBE H 15Jun2001                                                 
   LULTRA =        F    use ultrasoft PP ?                                      
   IUNSCR =        0    unscreen: 0-lin 1-nonlin 2-no                           
   RPACOR =    0.000    partial core radius                                     
   POMASS =    1.000; ZVAL   =    1.000    mass and valenz                      
   RCORE  =    1.100    outmost cutoff radius                                   
   RWIGS  =    0.700; RWIGS  =    0.370    wigner-seitz radius (au A)           
   ENMAX  =  250.000; ENMIN  =  200.000 eV                                      
   RCLOC  =    0.701    cutoff for local pot                                    
   LCOR   =        T    correct aug charges                                     
   LPAW   =        T    paw PP                                                  
   EAUG   =  400.000                                                            
   RMAX   =    1.123    core radius for proj-oper                               
   RAUG   =    1.200    factor for augmentation sphere                          
   RDEP   =    1.112    radius for radial grids                                 
   RDEPT  =    0.926    core radius for aug-charge                              
                                                                                
   Atomic configuration                                                         
    2 entries                                                                   
     n  l   j            E        occ.                                          
     1  0  0.50        -6.4927   1.0000                                         
     2  1  0.50        -3.4015   0.0000                                         
   Description                                                                  
     l       E           TYP  RCUT    TYP  RCUT                                 
     0     -6.4927494     23  1.100                                             
     0      6.8029130     23  1.100                                             
     1     -4.0817478     23  1.100                                             
  local pseudopotential read in
  atomic valenz-charges read in
  non local Contribution for L=           0  read in
    real space projection operators read in
  non local Contribution for L=           0  read in
    real space projection operators read in
  non local Contribution for L=           1  read in
    real space projection operators read in
    PAW grid and wavefunctions read in
 
   number of l-projection  operators is LMAX  =           3
   number of lm-projection operators is LMMAX =           5
 
 POTCAR:    PAW_PBE C 08Apr2002                   
   VRHFIN =C: s2p2                                                              
   LEXCH  = PE                                                                  
   EATOM  =   147.1560 eV,   10.8157 Ry                                         
                                                                                
   TITEL  = PAW_PBE C 08Apr2002                                                 
   LULTRA =        F    use ultrasoft PP ?                                      
   IUNSCR =        1    unscreen: 0-lin 1-nonlin 2-no                           
   RPACOR =    1.200    partial core radius                                     
   POMASS =   12.011; ZVAL   =    4.000    mass and valenz                      
   RCORE  =    1.500    outmost cutoff radius                                   
   RWIGS  =    1.630; RWIGS  =    0.863    wigner-seitz radius (au A)           
   ENMAX  =  400.000; ENMIN  =  300.000 eV                                      
   ICORE  =        2    local potential                                         
   LCOR   =        T    correct aug charges                                     
   LPAW   =        T    paw PP                                                  
   EAUG   =  644.873                                                            
   DEXC   =    0.000                                                            
   RMAX   =    1.529    core radius for proj-oper                               
   RAUG   =    1.300    factor for augmentation sphere                          
   RDEP   =    1.501    radius for radial grids                                 
   RDEPT  =    1.300    core radius for aug-charge                              
                                                                                
   Atomic configuration                                                         
    4 entries                                                                   
     n  l   j            E        occ.                                          
     1  0  0.50      -273.3789   2.0000                                         
     2  0  0.50       -13.7508   2.0000                                         
     2  1  0.50        -5.2854   2.0000                                         
     3  2  1.50        -5.4423   0.0000                                         
   Description                                                                  
     l       E           TYP  RCUT    TYP  RCUT                                 
     0    -13.7508458     23  1.200                                             
     0     -8.2022199     23  1.200                                             
     1     -5.2854383     23  1.500                                             
     1     34.0145650     23  1.500                                             
     2     -5.4423304      7  1.500                                             
  local pseudopotential read in
  partial core-charges read in
  partial kinetic energy density read in
  atomic valenz-charges read in
  non local Contribution for L=           0  read in
    real space projection operators read in
  non local Contribution for L=           0  read in
    real space projection operators read in
  non local Contribution for L=           1  read in
    real space projection operators read in
  non local Contribution for L=           1  read in
    real space projection operators read in
    PAW grid and wavefunctions read in
 
   number of l-projection  operators is LMAX  =           4
   number of lm-projection operators is LMMAX =           8
 
 Optimization of the real space projectors (new method)

 maximal supplied QI-value         = 15.12
 optimisation between [QCUT,QGAM] = [ 11.34, 22.83] = [ 36.00,145.93] Ry 
 Optimized for a Real-space Cutoff    1.47 Angstroem

   l    n(q)    QCUT    max X(q) W(low)/X(q) W(high)/X(q)  e(spline) 
   0     10    11.338    12.107    0.38E-04    0.13E-04    0.27E-07
   0     10    11.338     9.948    0.69E-04    0.30E-04    0.38E-07
   1     10    11.338     3.563    0.26E-04    0.18E-04    0.40E-07
   1     10    11.338     4.524    0.25E-03    0.39E-04    0.44E-06
   2      9    11.338    87.261    0.26E-03    0.91E-05    0.26E-06
   2      9    11.338    70.950    0.25E-03    0.91E-05    0.25E-06
 Optimization of the real space projectors (new method)

 maximal supplied QI-value         = 24.76
 optimisation between [QCUT,QGAM] = [ 11.39, 22.77] = [ 36.31,145.25] Ry 
 Optimized for a Real-space Cutoff    1.00 Angstroem

   l    n(q)    QCUT    max X(q) W(low)/X(q) W(high)/X(q)  e(spline) 
   0      7    11.387    20.381    0.39E-03    0.13E-02    0.15E-06
   0      7    11.387    15.268    0.42E-03    0.14E-02    0.17E-06
   1      6    11.387     5.964    0.41E-03    0.11E-02    0.17E-06
   1      6    11.387     5.382    0.39E-03    0.87E-03    0.15E-06
 Optimization of the real space projectors (new method)

 maximal supplied QI-value         = 34.20
 optimisation between [QCUT,QGAM] = [ 11.29, 22.57] = [ 35.68,142.71] Ry 
 Optimized for a Real-space Cutoff    1.16 Angstroem

   l    n(q)    QCUT    max X(q) W(low)/X(q) W(high)/X(q)  e(spline) 
   0      8    11.287    19.460    0.40E-03    0.73E-03    0.16E-06
   0      8    11.287    12.209    0.38E-03    0.70E-03    0.15E-06
   1      7    11.287     4.655    0.22E-03    0.25E-04    0.22E-06
 Optimization of the real space projectors (new method)

 maximal supplied QI-value         = 25.13
 optimisation between [QCUT,QGAM] = [ 11.31, 22.87] = [ 35.82,146.48] Ry 
 Optimized for a Real-space Cutoff    1.00 Angstroem

   l    n(q)    QCUT    max X(q) W(low)/X(q) W(high)/X(q)  e(spline) 
   0      7    11.310   115.676    0.43E-03    0.13E-02    0.19E-06
   0      7    11.310    87.132    0.43E-03    0.13E-02    0.18E-06
   1      6    11.310     4.429    0.42E-03    0.74E-03    0.11E-06
   1      6    11.310     2.733    0.34E-03    0.55E-03    0.92E-07
  PAW_PBE Zr_sv 04Jan2005               :
 energy of atom  1       EATOM=-1284.2219
 kinetic energy error for atom=    0.0049 (will be added to EATOM!!)
  PAW_PBE O 08Apr2002                   :
 energy of atom  2       EATOM= -432.3788
 kinetic energy error for atom=    0.0224 (will be added to EATOM!!)
  PAW_PBE H 15Jun2001                   :
 energy of atom  3       EATOM=  -12.4884
 kinetic energy error for atom=    0.0020 (will be added to EATOM!!)
  PAW_PBE C 08Apr2002                   :
 energy of atom  4       EATOM= -147.1560
 kinetic energy error for atom=    0.0076 (will be added to EATOM!!)
 
 
 POSCAR: POSCAR                                  
  positions in direct lattice
  velocities in cartesian coordinates
  No initial velocities read in
 exchange correlation table for  LEXCH =        8
   RHO(1)=    0.500       N(1)  =     2000
   RHO(2)=  100.500       N(2)  =     4000
 


--------------------------------------------------------------------------------------------------------


 ion  position               nearest neighbor table
   1  0.088  0.321  0.038-  78 2.10  62 2.10  50 2.18  74 2.19  61 2.26  54 2.30  16 3.37   6 3.50
                            12 3.52  13 3.65
   2  0.338  0.821  0.038-  79 2.10  63 2.10  51 2.18  75 2.19  58 2.26  55 2.30  13 3.37   7 3.50
                             9 3.52  14 3.65
   3  0.588  0.321  0.038-  80 2.10  64 2.10  52 2.18  76 2.19  59 2.26  56 2.30  14 3.37   8 3.50
                            10 3.52  15 3.65
   4  0.838  0.821  0.038-  81 2.10  65 2.10  53 2.18  77 2.19  60 2.26  57 2.30  15 3.37   5 3.50
                            11 3.52  16 3.65
   5  0.070  0.834  0.049-  82 2.07  66 2.10  65 2.18  58 2.19  57 2.22  70 2.30  12 3.37  17 3.46
                             4 3.50  16 3.52   9 3.65
   6  0.320  0.334  0.049-  83 2.06  67 2.10  62 2.18  59 2.19  54 2.22  71 2.30   9 3.37  18 3.47
                             1 3.50  13 3.52  10 3.65
   7  0.570  0.834  0.049-  84 2.06  68 2.10  63 2.18  60 2.19  55 2.22  72 2.30  10 3.37  19 3.49
                             2 3.50  14 3.52  11 3.65
   8  0.820  0.334  0.049-  85 2.07  69 2.10  64 2.18  61 2.19  56 2.22  73 2.30  11 3.37   3 3.50
                            20 3.50  15 3.52  12 3.65
   9  0.238  0.068  0.057-  62 2.10  86 2.16  67 2.18  70 2.19  75 2.22  58 2.30   6 3.37  17 3.49
                            14 3.50  22 3.51   2 3.52   5 3.65
  10  0.488  0.568  0.057-  63 2.10  87 2.18  68 2.18  71 2.19  76 2.22  59 2.30   7 3.37  18 3.48
                            15 3.50   3 3.52  23 3.53   6 3.65
  11  0.738  0.068  0.057-  64 2.10  69 2.18  88 2.18  72 2.19  77 2.22  60 2.30   8 3.37  19 3.48
                            16 3.50   4 3.52  24 3.53   7 3.65
  12  0.988  0.568  0.057-  65 2.10  66 2.18  89 2.18  73 2.19  74 2.22  61 2.30   5 3.37  13 3.50
                            20 3.51   1 3.52  21 3.52   8 3.65
  13  0.220  0.581  0.068-  51 2.10  66 2.10  79 2.18  54 2.19  90 2.26  71 2.26  74 2.30   2 3.37
                            21 3.49  26 3.49  12 3.50  18 3.50   6 3.52   1 3.65
  14  0.470  0.081  0.068-  52 2.10  67 2.10  80 2.18  55 2.19  72 2.26  91 2.27  75 2.30   3 3.37
                            27 3.48  22 3.49   9 3.50  19 3.52   7 3.52   2 3.65
  15  0.720  0.581  0.068-  53 2.10  68 2.10  81 2.18  56 2.19  73 2.26  92 2.26  76 2.30   4 3.37
                            10 3.50  28 3.50  23 3.50   8 3.52  20 3.52   3 3.65
  16  0.970  0.081  0.068-  50 2.10  69 2.10  78 2.18  57 2.19  70 2.26  93 2.27  77 2.30   1 3.37
                            17 3.50  11 3.50  25 3.50  24 3.51   5 3.52   4 3.65
  17  0.105  0.982  0.171-  94 2.09 110 2.13  82 2.16  70 2.19 106 2.19  93 2.24  86 2.31  32 3.40
                             5 3.46   9 3.49  16 3.50  22 3.53  25 3.54  29 3.67
  18  0.356  0.484  0.171-  95 2.09 111 2.13  83 2.16  71 2.19 107 2.19  90 2.23  87 2.29  29 3.38
                             6 3.47  10 3.48  13 3.50  23 3.51  26 3.54  30 3.65
  19  0.608  0.985  0.172-  96 2.09 112 2.14  84 2.19 108 2.20  72 2.20  91 2.23  88 2.28  30 3.39
                            11 3.48  24 3.48   7 3.49  27 3.51  14 3.52  31 3.68
  20  0.856  0.484  0.172- 113 2.10  97 2.10  85 2.19 109 2.19  73 2.22  92 2.23  89 2.31  31 3.35
                            28 3.49   8 3.50  12 3.51  15 3.52  21 3.52  32 3.63
  21  0.089  0.495  0.182- 114 2.09  98 2.11  97 2.17  90 2.18  74 2.24  89 2.27 102 2.30  25 3.37
                            13 3.49  32 3.52  12 3.52  20 3.52  26 3.62  33 3.65
  22  0.339  0.995  0.182- 115 2.10  99 2.11  94 2.17  91 2.19  75 2.23 103 2.25  86 2.27  26 3.38
                            14 3.49  29 3.51   9 3.51  17 3.53  34 3.60  27 3.63
  23  0.589  0.492  0.183- 100 2.08 116 2.12  95 2.17  92 2.18  76 2.24  87 2.29 104 2.30  27 3.36
                            35 3.49  15 3.50  18 3.51  10 3.53  30 3.56  28 3.69
  24  0.838  0.995  0.183- 101 2.10 117 2.11  96 2.18  93 2.18  77 2.26  88 2.26 105 2.29  28 3.37
                            19 3.48  16 3.51  11 3.53  31 3.53  36 3.61  25 3.65
  25  0.004  0.230  0.191-  78 2.10  97 2.10 121 2.15  98 2.20 105 2.23  93 2.29 106 2.30  21 3.37
                            37 3.44  16 3.50  17 3.54  29 3.55  24 3.65  36 3.68
  26  0.253  0.730  0.191-  94 2.10  79 2.10 102 2.18  99 2.20 118 2.20  90 2.29 107 2.29  22 3.38
                            38 3.46  13 3.49  18 3.54  30 3.55  21 3.62  33 3.64
  27  0.504  0.228  0.191-  80 2.09  95 2.12 119 2.16 100 2.19 103 2.20  91 2.29 108 2.29  23 3.36
                            14 3.48  39 3.49  19 3.51  31 3.57  22 3.63  34 3.66
  28  0.758  0.729  0.191-  81 2.09  96 2.12 101 2.16 109 2.23 120 2.23 104 2.23  92 2.30  24 3.37
                            32 3.48  20 3.49  35 3.50  15 3.50  40 3.60  23 3.69
  29  0.239  0.242  0.200-  98 2.09  83 2.10 122 2.18 103 2.21  86 2.22 111 2.22 106 2.29  18 3.38
                            37 3.41  22 3.51  42 3.51  25 3.55  34 3.62  17 3.67
  30  0.488  0.743  0.200-  99 2.08  84 2.09 112 2.19 123 2.20  87 2.21 104 2.26 107 2.30  19 3.39
                            38 3.45  43 3.49  35 3.50  26 3.55  23 3.56  18 3.65
  31  0.740  0.245  0.204- 100 2.11  85 2.12 113 2.13 105 2.21 124 2.28  88 2.28 108 2.30  20 3.35
                            39 3.51  44 3.52  24 3.53  27 3.57  36 3.64  19 3.68
  32  0.988  0.740  0.203- 101 2.12  82 2.14 110 2.19 102 2.21 125 2.22  89 2.23 109 2.25  17 3.40
                            41 3.46  28 3.48  21 3.52  40 3.56  33 3.62  20 3.63
  33  0.123  0.643  0.314- 142 2.02 126 2.16 138 2.17 114 2.21 125 2.24 118 2.36 102 2.41  45 3.21
                            41 3.47  38 3.54  32 3.62  26 3.64  21 3.65  46 3.69
  34  0.370  0.140  0.312- 143 2.03 127 2.13 139 2.18 115 2.20 122 2.24 119 2.39 103 2.41  46 3.23
                            42 3.49  39 3.51  22 3.60  29 3.62  47 3.63  27 3.66
  35  0.622  0.647  0.305- 140 2.15 123 2.18 116 2.19 104 2.20 128 2.21 144 2.22 120 2.24  49 3.21
                            43 3.44  47 3.46  23 3.49  30 3.50  28 3.50  40 3.57  48 3.71
  36  0.873  0.137  0.314- 145 2.02 129 2.10 141 2.14 117 2.21 124 2.36 105 2.36 121 2.51  48 3.22
                            44 3.37  37 3.56  24 3.61  31 3.64  25 3.68  45 3.81
  37  0.110  0.161  0.312- 130 2.09 121 2.12 122 2.15 106 2.16 129 2.17 134 2.19  29 3.41  25 3.44
                            41 3.45  45 3.48  36 3.56  42 3.58
  38  0.358  0.659  0.313- 131 2.11 126 2.14 107 2.15 135 2.16 123 2.16 118 2.17  42 3.44  30 3.45
                            26 3.46  33 3.54  46 3.54  43 3.57
  39  0.603  0.158  0.316- 136 2.06 132 2.11 127 2.15 124 2.19 108 2.21 119 2.22  43 3.42  47 3.43
                            27 3.49  31 3.51  34 3.51  44 3.82
  40  0.857  0.664  0.323- 146 2.11 133 2.14 137 2.19 120 2.20 125 2.21 128 2.31 109 2.39  49 3.40
                            48 3.45  44 3.46  32 3.56  41 3.57  35 3.57  28 3.60
  41  0.026  0.889  0.324- 110 2.05 138 2.15 137 2.16 129 2.17 130 2.20 125 2.28  37 3.45  32 3.46
                            33 3.47  46 3.50  40 3.57
  42  0.275  0.389  0.325- 111 2.06 139 2.12 126 2.14 134 2.24 131 2.25 122 2.30  38 3.44  47 3.47
                            34 3.49  29 3.51  37 3.58
  43  0.523  0.887  0.325- 112 2.06 140 2.14 127 2.14 132 2.18 135 2.26 123 2.30  39 3.42  35 3.44
                            30 3.49  48 3.55  38 3.57
  44  0.793  0.385  0.329- 147 2.07 133 2.09 141 2.09 113 2.16 124 2.22 128 2.22  49 3.19  45 3.36
                            36 3.37  40 3.46  31 3.52  39 3.82
  45  0.016  0.407  0.336- 142 2.02 114 2.06 133 2.17 141 2.22 134 2.25 121 2.30  33 3.21  44 3.36
                            37 3.48  36 3.81
  46  0.258  0.907  0.336- 143 2.02 115 2.07 130 2.15 138 2.26 118 2.29 135 2.31  34 3.23  41 3.50
                            38 3.54  33 3.69
  47  0.504  0.398  0.336- 136 2.09 116 2.10 131 2.17 119 2.21 139 2.22 144 2.27  39 3.43  35 3.46
                            42 3.47  34 3.63  49 3.89
  48  0.758  0.907  0.337- 145 2.02 117 2.06 132 2.19 137 2.23 120 2.33 140 2.35  36 3.22  40 3.45
                            43 3.55  35 3.71
  49  0.706  0.546  0.414- 147 1.93 146 1.99 144 2.09 128 2.21 164 2.75 163 2.79  44 3.19  35 3.21
                            40 3.40  47 3.89
  50  0.024  0.173  0.000-  16 2.10   1 2.18
  51  0.274  0.673  0.000-  13 2.10   2 2.18
  52  0.524  0.173  0.000-  14 2.10   3 2.18
  53  0.774  0.673  0.000-  15 2.10   4 2.18
  54  0.215  0.432  0.016-  13 2.19   6 2.22   1 2.30
  55  0.465  0.932  0.016-  14 2.19   7 2.22   2 2.30
  56  0.715  0.432  0.016-  15 2.19   8 2.22   3 2.30
  57  0.965  0.932  0.016-  16 2.19   5 2.22   4 2.30
  58  0.207  0.891  0.025-   5 2.19   2 2.26   9 2.30
  59  0.457  0.391  0.025-   6 2.19   3 2.26  10 2.30
  60  0.707  0.891  0.025-   7 2.19   4 2.26  11 2.30
  61  0.957  0.391  0.025-   8 2.19   1 2.26  12 2.30
  62  0.197  0.226  0.044-   9 2.10   1 2.10   6 2.18
  63  0.447  0.726  0.044-  10 2.10   2 2.10   7 2.18
  64  0.697  0.226  0.044-  11 2.10   3 2.10   8 2.18
  65  0.947  0.726  0.044-  12 2.10   4 2.10   5 2.18
  66  0.111  0.675  0.062-   5 2.10  13 2.10  12 2.18
  67  0.361  0.175  0.062-   6 2.10  14 2.10   9 2.18
  68  0.611  0.675  0.062-   7 2.10  15 2.10  10 2.18
  69  0.861  0.175  0.062-   8 2.10  16 2.10  11 2.18
  70  0.101  0.010  0.081-  17 2.19   9 2.19  16 2.26   5 2.30
  71  0.351  0.510  0.081-  18 2.19  10 2.19  13 2.26   6 2.30
  72  0.601  0.010  0.081-  11 2.19  19 2.20  14 2.26   7 2.30
  73  0.851  0.510  0.081-  12 2.19  20 2.22  15 2.26   8 2.30
  74  0.093  0.470  0.090-   1 2.19  12 2.22  21 2.24  13 2.30
  75  0.343  0.970  0.090-   2 2.19   9 2.22  22 2.23  14 2.30
  76  0.593  0.470  0.090-   3 2.19  10 2.22  23 2.24  15 2.30
  77  0.843  0.970  0.090-   4 2.19  11 2.22  24 2.26  16 2.30
  78  0.034  0.229  0.106-   1 2.10  25 2.10  16 2.18
  79  0.284  0.729  0.106-   2 2.10  26 2.10  13 2.18
  80  0.534  0.229  0.106-  27 2.09   3 2.10  14 2.18
  81  0.784  0.729  0.106-  28 2.09   4 2.10  15 2.18
  82  0.045  0.833  0.134-   5 2.07  32 2.14  17 2.16
  83  0.297  0.334  0.133-   6 2.06  29 2.10  18 2.16
  84  0.546  0.834  0.133-   7 2.06  30 2.09  19 2.19
  85  0.795  0.333  0.134-   8 2.07  31 2.12  20 2.19
  86  0.231  0.093  0.146-   9 2.16  29 2.22  22 2.27  17 2.31
  87  0.481  0.594  0.147-  10 2.18  30 2.21  23 2.29  18 2.29
  88  0.732  0.094  0.147-  11 2.18  24 2.26  19 2.28  31 2.28
  89  0.982  0.594  0.147-  12 2.18  32 2.23  21 2.27  20 2.31
  90  0.226  0.552  0.160-  21 2.18  18 2.23  13 2.26  26 2.29
  91  0.476  0.051  0.161-  22 2.19  19 2.23  14 2.27  27 2.29
  92  0.725  0.552  0.161-  23 2.18  20 2.23  15 2.26  28 2.30
  93  0.974  0.053  0.161-  24 2.18  17 2.24  16 2.27  25 2.29
  94  0.215  0.890  0.181-  17 2.09  26 2.10  22 2.17
  95  0.465  0.389  0.180-  18 2.09  27 2.12  23 2.17
  96  0.715  0.889  0.181-  19 2.09  28 2.12  24 2.18
  97  0.966  0.391  0.182-  20 2.10  25 2.10  21 2.17
  98  0.130  0.335  0.191-  29 2.09  21 2.11  25 2.20
  99  0.379  0.835  0.194-  30 2.08  22 2.11  26 2.20
 100  0.629  0.335  0.194-  23 2.08  31 2.11  27 2.19
 101  0.879  0.837  0.194-  24 2.10  32 2.12  28 2.16
 102  0.117  0.672  0.215-  26 2.18  32 2.21  21 2.30  33 2.41
 103  0.367  0.169  0.213-  27 2.20  29 2.21  22 2.25  34 2.41
 104  0.618  0.670  0.214-  35 2.20  28 2.23  30 2.26  23 2.30
 105  0.867  0.170  0.217-  31 2.21  25 2.23  24 2.29  36 2.36
 106  0.115  0.130  0.223-  37 2.16  17 2.19  29 2.29  25 2.30
 107  0.364  0.631  0.224-  38 2.15  18 2.19  26 2.29  30 2.30
 108  0.615  0.131  0.226-  19 2.20  39 2.21  27 2.29  31 2.30
 109  0.864  0.632  0.225-  20 2.19  28 2.23  32 2.25  40 2.39
 110  0.047  0.894  0.240-  41 2.05  17 2.13  32 2.19
 111  0.298  0.395  0.241-  42 2.06  18 2.13  29 2.22
 112  0.547  0.893  0.240-  43 2.06  19 2.14  30 2.19
 113  0.799  0.393  0.240-  20 2.10  31 2.13  44 2.16
 114  0.072  0.493  0.269-  45 2.06  21 2.09  33 2.21
 115  0.313  0.992  0.268-  46 2.07  22 2.10  34 2.20
 116  0.560  0.492  0.269-  47 2.10  23 2.12  35 2.19
 117  0.807  0.994  0.269-  48 2.06  24 2.11  36 2.21
 118  0.251  0.750  0.283-  38 2.17  26 2.20  46 2.29  33 2.36
 119  0.497  0.252  0.280-  27 2.16  47 2.21  39 2.22  34 2.39
 120  0.749  0.747  0.284-  40 2.20  28 2.23  35 2.24  48 2.33
 121  0.008  0.253  0.280-  37 2.12  25 2.15  45 2.30  36 2.51
 122  0.245  0.214  0.290-  37 2.15  29 2.18  34 2.24  42 2.30
 123  0.494  0.712  0.290-  38 2.16  35 2.18  30 2.20  43 2.30
 124  0.740  0.221  0.298-  39 2.19  44 2.22  31 2.28  36 2.36
 125  0.994  0.712  0.294-  40 2.21  32 2.22  33 2.24  41 2.28
 126  0.239  0.555  0.328-  42 2.14  38 2.14  33 2.16
 127  0.483  0.051  0.325-  34 2.13  43 2.14  39 2.15
 128  0.731  0.543  0.323-  49 2.21  35 2.21  44 2.22  40 2.31
 129  0.989  0.056  0.328-  36 2.10  37 2.17  41 2.17
 130  0.146  0.004  0.331-  37 2.09  46 2.15  41 2.20
 131  0.397  0.505  0.337-  38 2.11  47 2.17  42 2.25
 132  0.641  0.001  0.337-  39 2.11  43 2.18  48 2.19
 133  0.902  0.503  0.328-  44 2.09  40 2.14  45 2.17
 134  0.139  0.320  0.352-  37 2.19  42 2.24  45 2.25
 135  0.385  0.819  0.351-  38 2.16  43 2.26  46 2.31
 136  0.595  0.294  0.367-  39 2.06  47 2.09
 137  0.889  0.838  0.344-  41 2.16  40 2.19  48 2.23
 138  0.132  0.800  0.356-  41 2.15  33 2.17  46 2.26
 139  0.378  0.298  0.355-  42 2.12  34 2.18  47 2.22
 140  0.627  0.794  0.354-  43 2.14  35 2.15  48 2.35
 141  0.897  0.293  0.355-  44 2.09  36 2.14  45 2.22
 142  0.069  0.544  0.375-  45 2.02  33 2.02
 143  0.315  0.043  0.374-  46 2.02  34 2.03
 144  0.579  0.544  0.378-  49 2.09  35 2.22  47 2.27
 145  0.814  0.043  0.375-  48 2.02  36 2.02
 146  0.802  0.666  0.404-  49 1.99  40 2.11
 147  0.759  0.408  0.412-  49 1.93  44 2.07
 148  0.656  0.239  0.543- 162 1.10
 149  0.604  0.336  0.462- 161 1.11
 150  0.451  0.207  0.536- 160 1.10
 151  0.521  0.396  0.501- 161 1.10
 152  0.521  0.108  0.560- 160 1.10
 153  0.523  0.148  0.489- 160 1.10
 154  0.721  0.439  0.530- 163 1.10
 155  0.582  0.300  0.588- 162 1.10
 156  0.572  0.591  0.509- 164 1.10
 157  0.680  0.700  0.576- 165 1.10
 158  0.712  0.730  0.507- 165 1.10
 159  0.770  0.635  0.546- 165 1.10
 160  0.517  0.178  0.532- 152 1.10 150 1.10 153 1.10 162 1.53
 161  0.588  0.367  0.504- 151 1.10 149 1.11 163 1.50 162 1.54
 162  0.590  0.270  0.545- 155 1.10 148 1.10 160 1.53 161 1.54
 163  0.654  0.462  0.519- 154 1.10 164 1.36 161 1.50  49 2.79
 164  0.639  0.570  0.520- 156 1.10 163 1.36 165 1.51  49 2.75
 165  0.704  0.663  0.538- 159 1.10 157 1.10 158 1.10 164 1.51
 
  Warning from LATTYP: Monoclinic adjustement (A1->A3, A2->A1, A3->A2)!
  Warning from LATTYP: Got some problem with cell dimensions!
  Tried to take original basis but could not verify dimensions!
  LATTYP: Found a simple monoclinic cell.
 ALAT       =    18.5584556648
 B/A-ratio  =     1.2917238965
 C/A-ratio  =     1.7011970181
 COS(beta)  =    -0.9496615564
  
  Lattice vectors:
  
 A1 = ( -14.0305058395, -12.1474763861,   0.0000000000)
 A2 = (   0.0000000000,   0.0000000000, -23.9724006653)
 A3 = (  29.1411063110,  12.1474763861,   0.0000000000)


Analysis of symmetry for initial positions (statically):
=====================================================================
 Subroutine PRICEL returns:
 Original cell was already a primitive cell.
 

 Routine SETGRP: Setting up the symmetry group for a 
 simple monoclinic supercell.


 Subroutine GETGRP returns: Found  1 space group operations
 (whereof  1 operations were pure point group operations)
 out of a pool of  4 trial point group operations.


The static configuration has the point symmetry C_1 .


Analysis of symmetry for dynamics (positions and initial velocities):
=====================================================================
 Subroutine PRICEL returns:
 Original cell was already a primitive cell.
 

 Routine SETGRP: Setting up the symmetry group for a 
 simple monoclinic supercell.


 Subroutine GETGRP returns: Found  1 space group operations
 (whereof  1 operations were pure point group operations)
 out of a pool of  4 trial point group operations.


The dynamic configuration has the point symmetry C_1 .


Analysis of constrained symmetry for selective dynamics:
=====================================================================
 Subroutine PRICEL returns:
 Original cell was already a primitive cell.
 

 Routine SETGRP: Setting up the symmetry group for a 
 simple monoclinic supercell.


 Subroutine GETGRP returns: Found  1 space group operations
 (whereof  1 operations were pure point group operations)
 out of a pool of  4 trial point group operations.


The constrained configuration has the point symmetry C_1 .


Analysis of structural, dynamic, and magnetic symmetry:
=====================================================================
 Subroutine PRICEL returns:
 Original cell was already a primitive cell.
 

 Routine SETGRP: Setting up the symmetry group for a 
 simple monoclinic supercell.


 Subroutine GETGRP returns: Found  1 space group operations
 (whereof  1 operations were pure point group operations)
 out of a pool of  4 trial point group operations.


The magnetic configuration has the point symmetry C_1 .


 Subroutine INISYM returns: Found  1 space group operations
 (whereof  1 operations are pure point group operations),
 and found     1 'primitive' translations

 
 
 KPOINTS: Monkhorst Pack                          

Automatic generation of k-mesh.
Space group operators:
 irot       det(A)        alpha          n_x          n_y          n_z        tau_x        tau_y        tau_z
    1     1.000000     0.000001     1.000000     0.000000     0.000000     0.000000     0.000000     0.000000
 
 Subroutine IBZKPT returns following result:
 ===========================================
 
 Found      2 irreducible k-points:
 
 Following reciprocal coordinates:
            Coordinates               Weight
  0.250000  0.250000  0.000000      2.000000
 -0.250000  0.250000  0.000000      2.000000
 
 Following cartesian coordinates:
            Coordinates               Weight
  0.016545  0.022051  0.000000      2.000000
 -0.016545  0.019109  0.000000      2.000000
 


--------------------------------------------------------------------------------------------------------




 Dimension of arrays:
   k-points           NKPTS =      2   k-points in BZ     NKDIM =      2   number of bands    NBANDS=    640
   number of dos      NEDOS =    301   number of ions     NIONS =    165
   non local maximal  LDIM  =      6   non local SUM 2l+1 LMDIM =     18
   total plane-waves  NPLWV = 823200
   max r-space proj   IRMAX =   2561   max aug-charges    IRDMAX=   7978
   dimension x,y,z NGX =    84 NGY =   70 NGZ =  140
   dimension x,y,z NGXF=   168 NGYF=  140 NGZF=  280
   support grid    NGXF=   168 NGYF=  140 NGZF=  280
   ions per type =              49  98  12   6
   NGX,Y,Z   is equivalent  to a cutoff of   9.24,  9.54,  9.71 a.u.
   NGXF,Y,Z  is equivalent  to a cutoff of  18.48, 19.08, 19.42 a.u.

 SYSTEM =  mZrO2_n111                              
 POSCAR =  POSCAR                                  

 Startparameter for this run:
   NWRITE =      2    write-flag & timer
   PREC   = normal    normal or accurate (medium, high low for compatibility)
   ISTART =      1    job   : 0-new  1-cont  2-samecut
   ICHARG =      1    charge: 1-file 2-atom 10-const
   ISPIN  =      2    spin polarized calculation?
   LNONCOLLINEAR =      F non collinear calculations
   LSORBIT =      F    spin-orbit coupling
   INIWAV =      1    electr: 0-lowe 1-rand  2-diag
   LASPH  =      F    aspherical Exc in radial PAW
   METAGGA=      F    non-selfconsistent MetaGGA calc.

 Electronic Relaxation 1
   ENCUT  =  500.0 eV  36.75 Ry    6.06 a.u.  27.55 22.24 43.71*2*pi/ulx,y,z
   ENINI  =  500.0     initial cutoff
   ENAUG  =  644.9 eV  augmentation charge cutoff
   NELM   =    300;   NELMIN=  2; NELMDL=  0     # of ELM steps 
   EDIFF  = 0.1E-05   stopping-criterion for ELM
   LREAL  =      T    real-space projection
   NLSPLINE    = F    spline interpolate recip. space projectors
   LCOMPAT=      F    compatible to vasp.4.4
   GGA_COMPAT  = T    GGA compatible to vasp.4.4-vasp.4.6
   LMAXPAW     = -100 max onsite density
   LMAXMIX     =    2 max onsite mixed and CHGCAR
   VOSKOWN=      0    Vosko Wilk Nusair interpolation
   ROPT   =   -0.00050  -0.00050  -0.00050  -0.00050
 Ionic relaxation
   EDIFFG = -.2E-01   stopping-criterion for IOM
   NSW    =      0    number of steps for IOM
   NBLOCK =      1;   KBLOCK =      1    inner block; outer block 
   IBRION =     -1    ionic relax: 0-MD 1-quasi-New 2-CG
   NFREE  =      1    steps in history (QN), initial steepest desc. (CG)
   ISIF   =      2    stress and relaxation
   IWAVPR =     10    prediction:  0-non 1-charg 2-wave 3-comb
   ISYM   =      2    0-nonsym 1-usesym 2-fastsym
   LCORR  =      T    Harris-Foulkes like correction to forces

   POTIM  = 0.5000    time-step for ionic-motion
   TEIN   =    0.0    initial temperature
   TEBEG  =    0.0;   TEEND  =   0.0 temperature during run
   SMASS  =  -3.00    Nose mass-parameter (am)
   estimated Nose-frequenzy (Omega)   =  0.10E-29 period in steps =****** mass=  -0.522E-26a.u.
   SCALEE = 1.0000    scale energy and forces
   NPACO  =    256;   APACO  = 16.0  distance and # of slots for P.C.
   PSTRESS=    0.0 pullay stress

  Mass of Ions in am
   POMASS =  91.22 16.00  1.00 12.01
  Ionic Valenz
   ZVAL   =  12.00  6.00  1.00  4.00
  Atomic Wigner-Seitz radii
   RWIGS  =  -1.00 -1.00 -1.00 -1.00
  virtual crystal weights 
   VCA    =   1.00  1.00  1.00  1.00
   NELECT =    1212.0000    total number of electrons
   NUPDOWN=      -1.0000    fix difference up-down

 DOS related values:
   EMIN   =  10.00;   EMAX   =-10.00  energy-range for DOS
   EFERMI =   0.00
   ISMEAR =     0;   SIGMA  =   0.05  broadening in eV -4-tet -1-fermi 0-gaus

 Electronic relaxation 2 (details)
   IALGO  =     38    algorithm
   LDIAG  =      T    sub-space diagonalisation (order eigenvalues)
   LSUBROT=      F    optimize rotation matrix (better conditioning)
   TURBO    =      0    0=normal 1=particle mesh
   IRESTART =      0    0=no restart 2=restart with 2 vectors
   NREBOOT  =      0    no. of reboots
   NMIN     =      0    reboot dimension
   EREF     =   0.00    reference energy to select bands
   IMIX   =      4    mixing-type and parameters
     AMIX     =   0.40;   BMIX     =  1.00
     AMIX_MAG =   1.60;   BMIX_MAG =  1.00
     AMIN     =   0.10
     WC   =   100.;   INIMIX=   1;  MIXPRE=   1;  MAXMIX= -45

 Intra band minimization:
   WEIMIN = 0.0000     energy-eigenvalue tresh-hold
   EBREAK =  0.39E-09  absolut break condition
   DEPER  =   0.30     relativ break condition  

   TIME   =   0.40     timestep for ELM

  volume/ion in A,a.u.               =      26.67       179.97
  Fermi-wavevector in a.u.,A,eV,Ry     =   1.065163  2.012866 15.436782  1.134571
  Thomas-Fermi vector in A             =   2.200705
 
 Write flags
   LWAVE        =      F    write WAVECAR
   LDOWNSAMPLE  =      F    k-point downsampling of WAVECAR
   LCHARG       =      F    write CHGCAR
   LVTOT        =      F    write LOCPOT, total local potential
   LVHAR        =      F    write LOCPOT, Hartree potential only
   LELF         =      F    write electronic localiz. function (ELF)
   LORBIT       =      0    0 simple, 1 ext, 2 COOP (PROOUT), +10 PAW based schemes


 Dipole corrections
   LMONO  =      F    monopole corrections only (constant potential shift)
   LDIPOL =      F    correct potential (dipole corrections)
   IDIPOL =      3    1-x, 2-y, 3-z, 4-all directions 
   EPSILON=  1.0000000 bulk dielectric constant

 LDA+U is selected, type is set to LDAUTYPE =  2
   angular momentum for each species LDAUL =     2   -1   -1   -1
   U (eV)           for each species LDAUU =   4.0  0.0  0.0  0.0
   J (eV)           for each species LDAUJ =   0.0  0.0  0.0  0.0
 Exchange correlation treatment:
   GGA     =    --    GGA type
   LEXCH   =     8    internal setting for exchange type
   VOSKOWN=      0    Vosko Wilk Nusair interpolation
   LHFCALC =     F    Hartree Fock is set to
   LHFONE  =     F    Hartree Fock one center treatment
   AEXX    =    0.0000 exact exchange contribution

 Linear response parameters
   LEPSILON=     F    determine dielectric tensor
   LRPA    =     F    only Hartree local field effects (RPA)
   LNABLA  =     F    use nabla operator in PAW spheres
   LVEL    =     F    velocity operator in full k-point grid
   LINTERFAST=   F  fast interpolation
   KINTER  =     0    interpolate to denser k-point grid
   CSHIFT  =0.1000    complex shift for real part using Kramers Kronig
   OMEGAMAX=  -1.0    maximum frequency
   DEG_THRESHOLD= 0.2000000E-02 threshold for treating states as degnerate
   RTIME   =   -0.100 relaxation time in fs
  (WPLASMAI=    0.000 imaginary part of plasma frequency in eV, 0.658/RTIME)
   DFIELD  = 0.0000000 0.0000000 0.0000000 field for delta impulse in time
 
 Orbital magnetization related:
   ORBITALMAG=     F  switch on orbital magnetization
   LCHIMAG   =     F  perturbation theory with respect to B field
   DQ        =  0.001000  dq finite difference perturbation B field
   LLRAUG    =     F  two centre corrections for induced B field



--------------------------------------------------------------------------------------------------------


 Static calculation
 charge density and potential will be updated during run
 spin polarized calculation
 Variant of blocked Davidson
 Davidson routine will perform the subspace rotation
 perform sub-space diagonalisation
    after iterative eigenvector-optimisation
 modified Broyden-mixing scheme, WC =      100.0
 initial mixing is a Kerker type mixing with AMIX =  0.4000 and BMIX =      1.0000
 Hartree-type preconditioning will be used
 using additional bands           34
 real space projection scheme for non local part
 use partial core corrections
 calculate Harris-corrections to forces 
   (improved forces if not selfconsistent)
 use gradient corrections 
 use of overlap-Matrix (Vanderbilt PP)
 Gauss-broadening in eV      SIGMA  =   0.05


--------------------------------------------------------------------------------------------------------


  energy-cutoff  :      500.00
  volume of cell :     4400.27
      direct lattice vectors                 reciprocal lattice vectors
    15.110600471  0.000000000  0.000000000     0.066178707  0.005884289  0.000000000
    -1.080094632 12.147476386  0.000000000     0.000000000  0.082321625  0.000000000
     0.000000000  0.000000000 23.972400665     0.000000000  0.000000000  0.041714637

  length of vectors
    15.110600471 12.195400238 23.972400665     0.066439793  0.082321625  0.041714637


 
 old parameters found on file WAVECAR:
  energy-cutoff  :      500.00
  volume of cell :     4400.27
      direct lattice vectors                 reciprocal lattice vectors
    15.110600471  0.000000000  0.000000000     0.066178707  0.005884289  0.000000000
    -1.080094632 12.147476386  0.000000000     0.000000000  0.082321625  0.000000000
     0.000000000  0.000000000 23.972400665     0.000000000  0.000000000  0.041714637

  length of vectors

 
 k-points in units of 2pi/SCALE and weight: Monkhorst Pack                          
   0.01654468  0.02205148  0.00000000       0.500
  -0.01654468  0.01910933  0.00000000       0.500
 
 k-points in reciprocal lattice and weights: Monkhorst Pack                          
   0.25000000  0.25000000  0.00000000       0.500
  -0.25000000  0.25000000  0.00000000       0.500
 
 position of ions in fractional coordinates (direct lattice) 
   0.08848000  0.32082999  0.03824000
   0.33847998  0.82083000  0.03824000
   0.58847999  0.32082999  0.03824000
   0.83848001  0.82083000  0.03824000
   0.07020001  0.83354995  0.04873000
   0.32019998  0.33355000  0.04873000
   0.57020004  0.83354995  0.04873000
   0.82020001  0.33355000  0.04873000
   0.23783000  0.06778000  0.05703000
   0.48783004  0.56778001  0.05703000
   0.73783001  0.06778000  0.05703000
   0.98782997  0.56778001  0.05703000
   0.21954999  0.58051001  0.06752000
   0.46955000  0.08051000  0.06752000
   0.71954999  0.58051001  0.06752000
   0.96955000  0.08051000  0.06752000
   0.10539523  0.98229891  0.17086580
   0.35646374  0.48355500  0.17105703
   0.60767597  0.98457185  0.17156262
   0.85617671  0.48382708  0.17244302
   0.08942237  0.49476923  0.18230474
   0.33876462  0.99488611  0.18208750
   0.58875917  0.49243145  0.18251514
   0.83799686  0.99524865  0.18305129
   0.00441053  0.23044990  0.19136852
   0.25282876  0.72987693  0.19128956
   0.50425023  0.22838266  0.19096026
   0.75771380  0.72918074  0.19139989
   0.23937664  0.24164626  0.20022919
   0.48776409  0.74292345  0.19958702
   0.74016676  0.24464301  0.20371678
   0.98775376  0.74000402  0.20287297
   0.12309464  0.64288207  0.31383952
   0.36999327  0.13957596  0.31234507
   0.62164328  0.64659719  0.30452264
   0.87303663  0.13715306  0.31431425
   0.10951861  0.16064965  0.31181723
   0.35791309  0.65926085  0.31272347
   0.60293771  0.15796197  0.31618985
   0.85722166  0.66448121  0.32259879
   0.02590339  0.88902220  0.32442033
   0.27453542  0.38894061  0.32512418
   0.52302391  0.88680961  0.32455343
   0.79294507  0.38509177  0.32945836
   0.01615985  0.40719417  0.33586616
   0.25783819  0.90677836  0.33597554
   0.50409759  0.39761362  0.33554708
   0.75764031  0.90672285  0.33733043
   0.70572269  0.54583914  0.41408919
   0.02440000  0.17254999  0.00000000
   0.27439999  0.67255002  0.00000000
   0.52439999  0.17254999  0.00000000
   0.77439999  0.67255002  0.00000000
   0.21455000  0.43156997  0.01581000
   0.46455001  0.93156996  0.01581000
   0.71455008  0.43156997  0.01581000
   0.96455004  0.93156996  0.01581000
   0.20673000  0.89092997  0.02490000
   0.45673000  0.39092998  0.02490000
   0.70672997  0.89092997  0.02490000
   0.95673004  0.39092998  0.02490000
   0.19748000  0.22610000  0.04418000
   0.44748002  0.72610003  0.04418000
   0.69748003  0.22610000  0.04418000
   0.94747999  0.72610003  0.04418000
   0.11054000  0.67523994  0.06158000
   0.36054002  0.17523999  0.06158000
   0.61053998  0.67523994  0.06158000
   0.86053999  0.17523999  0.06158000
   0.10129000  0.01041000  0.08086000
   0.35129000  0.51041000  0.08086000
   0.60128998  0.01041000  0.08086000
   0.85128994  0.51041000  0.08086000
   0.09348000  0.46976000  0.08995000
   0.34348000  0.96975995  0.08995000
   0.59348001  0.46976000  0.08995000
   0.84347996  0.96975995  0.08995000
   0.03362000  0.22878000  0.10576000
   0.28361999  0.72877998  0.10576000
   0.53361997  0.22878000  0.10576000
   0.78362002  0.72877998  0.10576000
   0.04466970  0.83271645  0.13368333
   0.29654169  0.33384966  0.13337147
   0.54606168  0.83400919  0.13336009
   0.79548564  0.33252997  0.13382909
   0.23143333  0.09319157  0.14603752
   0.48148345  0.59354639  0.14667516
   0.73177307  0.09389606  0.14698012
   0.98187259  0.59352440  0.14676688
   0.22554453  0.55245472  0.16042137
   0.47615695  0.05079080  0.16065197
   0.72490362  0.55175628  0.16070358
   0.97428733  0.05282856  0.16095444
   0.21462188  0.89002290  0.18069655
   0.46460861  0.38925035  0.18016845
   0.71475845  0.88868086  0.18092667
   0.96568024  0.39059706  0.18165896
   0.13045987  0.33510347  0.19140554
   0.37865916  0.83500735  0.19356718
   0.62861589  0.33529045  0.19437835
   0.87913406  0.83693753  0.19446956
   0.11706359  0.67198697  0.21453395
   0.36710103  0.16911122  0.21280473
   0.61804427  0.67025574  0.21376477
   0.86687281  0.17020364  0.21728766
   0.11544833  0.12974580  0.22334179
   0.36359987  0.63052579  0.22416036
   0.61514338  0.13091008  0.22558987
   0.86423816  0.63199831  0.22465171
   0.04678888  0.89355289  0.23993018
   0.29791600  0.39547554  0.24055967
   0.54748285  0.89303002  0.24003148
   0.79911361  0.39292079  0.23970103
   0.07179847  0.49264416  0.26861633
   0.31274593  0.99234476  0.26800906
   0.56027268  0.49227306  0.26930414
   0.80732436  0.99422864  0.26897761
   0.25073864  0.75033322  0.28261278
   0.49745999  0.25191485  0.28016394
   0.74876545  0.74684433  0.28383305
   0.00801788  0.25281787  0.28023475
   0.24468735  0.21405000  0.29017532
   0.49372283  0.71156221  0.28997685
   0.74038915  0.22090281  0.29798161
   0.99427801  0.71244032  0.29419128
   0.23906578  0.55462518  0.32821553
   0.48321647  0.05081571  0.32490736
   0.73056188  0.54290149  0.32331891
   0.98850140  0.05647748  0.32785756
   0.14600310  0.00372559  0.33069170
   0.39721844  0.50508768  0.33744415
   0.64071109  0.00057288  0.33668908
   0.90207121  0.50289078  0.32775565
   0.13895601  0.32038507  0.35231870
   0.38527443  0.81884104  0.35125033
   0.59481594  0.29350832  0.36678023
   0.88895462  0.83803614  0.34410678
   0.13207070  0.80032668  0.35641522
   0.37801766  0.29785418  0.35497583
   0.62658976  0.79362176  0.35441218
   0.89659958  0.29330555  0.35453942
   0.06942110  0.54426519  0.37513188
   0.31519791  0.04296908  0.37429721
   0.57949357  0.54377441  0.37794882
   0.81374385  0.04316262  0.37537342
   0.80185291  0.66593200  0.40351824
   0.75949955  0.40814043  0.41228928
   0.65563261  0.23851764  0.54256276
   0.60359072  0.33558783  0.46167236
   0.45070837  0.20697597  0.53592248
   0.52096749  0.39554959  0.50116171
   0.52125329  0.10810440  0.55993729
   0.52327711  0.14840559  0.48860557
   0.72068148  0.43939094  0.53029138
   0.58188922  0.29992749  0.58771050
   0.57163758  0.59080907  0.50904464
   0.68024806  0.70037629  0.57622721
   0.71200608  0.72963778  0.50676477
   0.77016115  0.63538726  0.54632597
   0.51736527  0.17836721  0.53161642
   0.58814440  0.36721434  0.50356343
   0.58969168  0.27041687  0.54469806
   0.65426149  0.46167289  0.51855686
   0.63872526  0.56954389  0.51969753
   0.70420323  0.66290841  0.53789591
 
 position of ions in cartesian coordinates  (Angst):
   0.99045921  3.89727473  0.91670460
   4.22806168  9.97101307  0.91670460
   8.54575920  3.89727473  0.91670460
  11.78336239  9.97101307  0.91670460
   0.16045142 10.12552833  1.16817511
   4.47814847  4.05179071  1.16817511
   7.71575212 10.12552833  1.16817511
  12.03344917  4.05179071  1.16817511
   3.52054525  0.82335597  1.36714601
   6.75814868  6.89709425  1.36714601
  11.07584571  0.82335597  1.36714601
  14.31344795  6.89709425  1.36714601
   2.69052649  7.05173159  1.61861647
   7.00822400  0.97799331  1.61861647
  10.24582672  7.05173159  1.61861647
  14.56352424  0.97799331  1.61861647
   0.53160938 11.93245280  4.09606340
   4.86409594  5.87397289  4.10064767
   8.11891800 11.96006325  4.11276798
  12.41476515  5.87727800  4.13387311
   0.81682811  6.01019759  4.37028217
   4.04436561 12.08535556  4.36507458
   8.36463208  5.98179942  4.37532606
  11.58767299 12.08975948  4.38817892
  -0.18226196  2.79938467  4.58756283
   3.03205829  8.86616282  4.58567002
   7.37284881  2.77427300  4.57777597
  10.66192637  8.85770582  4.58831482
   3.35612388  2.93539224  4.79997432
   6.56798067  9.02464511  4.78457996
  10.92012661  2.97179515  4.88358029
  14.12627810  8.98918130  4.86335210
   1.16566041  7.80939474  7.52348667
   5.44006518  1.69549566  7.48766107
   8.69501707  7.85452407  7.30013883
  13.04396945  1.66606356  7.53486712
   1.48137512  1.95148782  7.47500758
   4.69621752  8.00835564  7.49673237
   8.94013699  1.91883933  7.57982973
  12.23543139  8.07176981  7.73346741
  -0.56881234 10.79937614  7.77713405
   3.72830234  4.72464693  7.79400719
   6.94536698 10.77249883  7.78032476
  11.56594063  4.67789324  7.89790770
  -0.19562318  4.94638154  8.05151814
   2.91668346 11.01506872  8.05414020
   7.18775698  4.83000211  8.04386910
  10.46905356 11.01439442  8.08662022
  10.07433574  6.63056802  9.92671203
   0.18232835  2.09604693  0.00000000
   3.41993094  8.16978550  0.00000000
   7.73762846  2.09604693  0.00000000
  10.97523117  8.16978550  0.00000000
   2.77584291  5.24248600  0.37900365
   6.01344586 11.31622410  0.37900365
  10.33114434  5.24248600  0.37900365
  13.56874656 11.31622410  0.37900365
   2.16152573 10.82255077  0.59691280
   6.47922326  4.74881268  0.59691280
   9.71682548 10.82255077  0.59691280
  14.03452396  4.74881268  0.59691280
   2.73983193  2.74654436  1.05910064
   5.97743511  8.82028293  1.05910064
  10.29513263  2.74654436  1.05910064
  13.53273487  8.82028293  1.05910064
   0.94100273  8.20246124  1.47622036
   5.25870037  2.12872362  1.47622036
   8.49630260  8.20246124  1.47622036
  12.81400013  2.12872362  1.47622036
   1.51930892  0.12645522  1.93840825
   4.75691175  6.20019341  1.93840825
   9.07460880  0.12645522  1.93840825
  12.31221104  6.20019341  1.93840825
   0.90515363  5.70639848  2.15631746
   4.14275646 11.78013610  2.15631746
   8.46045399  5.70639848  2.15631746
  11.69805622 11.78013610  2.15631746
   0.26091433  2.77909971  2.53532100
   3.49851704  8.85283756  2.53532100
   7.81621408  2.77909971  2.53532100
  11.05381775  8.85283756  2.53532100
  -0.22442652 10.11540342  3.20471047
   4.12033382  4.05543086  3.19723426
   7.35051110 10.13110694  3.19696145
  11.66110184  4.03939992  3.20820465
   3.39644088  1.13204243  3.50087000
   6.63441783  7.21009074  3.51615567
  10.95611380  1.14060012  3.52346631
  14.19562194  7.20982364  3.51835436
   2.81140987  6.71093068  3.84568545
   7.14015861  0.61698008  3.85121333
  10.35777999  6.70244634  3.85245065
  14.66500671  0.64173368  3.85846423
   2.28175657 10.81153214  4.33173012
   6.60008789  4.72840945  4.31907031
   9.84056988 10.79522976  4.33724656
  14.17012648  4.74476858  4.35480130
   1.60938355  4.07066146  4.58845020
   4.81988036 10.14323206  4.64026995
   9.13661817  4.07293281  4.65971567
  12.38027174 10.16667883  4.66190212
   1.04309168  8.16294581  5.14289389
   5.36446083  2.05427452  5.10144031
   8.61508046  8.14191583  5.12445480
  12.91513263  2.06754475  5.20890674
   1.60435579  1.57608400  5.35403881
   4.81318485  7.65929709  5.37366204
   9.15379054  1.59022714  5.40793079
  12.37653950  7.67718452  5.38544089
  -0.25811367 10.85441260  5.75170252
   4.07453869  4.80402974  5.76679275
   7.30823763 10.84806105  5.75413086
  11.65069492  4.77299606  5.74620924
   0.55281576  5.98438325  6.43937836
   3.65395258 12.05448460  6.42482055
   7.93435507  5.97987538  6.45586663
  11.12529482 12.07736889  6.44803911
   2.97838053  9.11465509  6.77490674
   7.24482734  3.06012967  6.71620231
  10.50763307  9.07227385  6.80415961
  -0.15191219  3.07109907  6.71789962
   3.46617860  2.60016732  6.95619900
   6.69189388  8.64368510  6.95144131
  10.94912863  2.68341172  7.14333459
  14.25463483  8.65435193  7.05247134
   3.01337974  6.73729633  7.86811420
   7.24680520  0.61728269  7.78880949
  10.45284364  6.59488303  7.75073047
  14.87584876  0.68605891  7.85953287
   2.20217059  0.04525656  7.92747384
   5.45666671  6.13554068  8.08934627
   9.68091045  0.00695909  8.07124555
  13.08766797  6.10885388  7.85708966
   1.75366260  3.89187009  8.44592497
   4.93730222  9.94685220  8.42031366
   8.67100930  3.56538539  8.79260258
  12.52747973 10.18002420  8.24906568
   1.13123900  9.72194947  8.54412834
   5.39036308  3.61817665  8.50962283
   8.61096086  9.64050159  8.49611083
  13.23136034  3.56292230  8.49916093
   0.46113663  6.61144848  8.99281175
   4.71641907  0.52196593  8.97280263
   8.16916796  6.60548685  9.06034048
  12.24953853  0.52431695  8.99860211
  11.39720931  8.08939325  9.67330088
  11.03566392  4.95787629  9.88356386
   9.64938076  2.89738741 13.00653195
   8.75815158  4.07654529 11.06739486
   6.58692054  2.51423570 12.84734832
   7.44490064  4.80492930 12.01404923
   7.75968727  1.31319564 13.42304102
   7.74673925  1.80275335 11.71304840
  10.41534614  5.33749111 12.71235754
   8.46874551  3.64336205 14.08883168
   7.99965731  7.17683929 12.20302215
   9.52248392  8.50780440 13.81354954
   9.97076149  8.86325768 12.14836808
  10.95131905  7.71835176 13.09674500
   7.62504640  2.16671145 12.74412181
   8.49058874  4.46072748 12.07162439
   8.61851955  3.28488253 13.05772023
   9.38763364  5.60816048 12.43105290
   9.03636093  6.91852100 12.45839750
   9.92492979  8.05266420 12.89465624
 


--------------------------------------------------------------------------------------------------------


 k-point  1 :   0.2500 0.2500 0.0000  plane waves:  111683
 k-point  2 :  -0.2500 0.2500 0.0000  plane waves:  111725

 maximum and minimum number of plane-waves per node :     18644    18587

 maximum number of plane-waves:    111725
 maximum index in each direction: 
   IXMAX=   27   IYMAX=   21   IZMAX=   43
   IXMIN=  -27   IYMIN=  -22   IZMIN=  -43


 real space projection operators:
  total allocation   :      22357.84 KBytes
  max/ min on nodes  :       3737.44       3720.59


 parallel 3D FFT for wavefunctions:
    minimum data exchange during FFTs selected (reduces bandwidth)
 parallel 3D FFT for charge:
    minimum data exchange during FFTs selected (reduces bandwidth)


 total amount of memory used by VASP MPI-rank0   174987. kBytes
=======================================================================

   base      :      30000. kBytes
   nonlr-proj:      11699. kBytes
   fftplans  :       9317. kBytes
   grid      :      26149. kBytes
   one-center:        870. kBytes
   wavefun   :      96952. kBytes
 
     INWAV:  cpu time    8.2882: real time    8.4220
 Broyden mixing: mesh for mixing (old mesh)
   NGX = 55   NGY = 45   NGZ = 87
  (NGX  =168   NGY  =140   NGZ  =280)
  gives a total of 215325 points

 initial charge density was supplied:
 number of electron    1211.9999974 magnetization       0.0000000
 keeping initial charge density in first step


--------------------------------------------------------------------------------------------------------


 Maximum index for non-local projection operator          433
 Maximum index for augmentation-charges          479 (set IRDMAX)


--------------------------------------------------------------------------------------------------------


 First call to EWALD:  gamma=   0.108
 Maximum number of real-space cells 3x 4x 2
 Maximum number of reciprocal cells 3x 2x 4

    FEWALD:  cpu time    0.0056: real time    0.0056


--------------------------------------- Iteration      1(   1)  ---------------------------------------


    POTLOK:  cpu time    0.2218: real time    0.2236
    SETDIJ:  cpu time    0.0223: real time    0.0224
     EDDAV:  cpu time   27.9657: real time   28.0706
       DOS:  cpu time    0.0008: real time    0.0007
    CHARGE:  cpu time    1.2098: real time    1.2140
    MIXING:  cpu time    0.0064: real time    0.0065
    --------------------------------------------
      LOOP:  cpu time   29.4269: real time   29.5380

 eigenvalue-minimisations  :  6304
 total energy-change (2. order) :-0.1371256E+04  (-0.1339843E+00)
 number of electron    1211.9999974 magnetization       0.0000000
 augmentation part       73.9398523 magnetization      -0.0000000

 Broyden mixing:
  rms(total) = 0.95322E-01    rms(broyden)= 0.95242E-01
  rms(prec ) = 0.96525E-01
  weight for this iteration     100.00

 Free energy of the ion-electron system (eV)
  ---------------------------------------------------
  alpha Z        PSCENC =      2161.47602710
  Ewald energy   TEWEN  =    383059.16833718
  -Hartree energ DENC   =   -480285.17697912
  -exchange      EXHF   =         0.00000000
  -V(xc)+E(xc)   XCENC  =      5331.73020688
  PAW double counting   =    130661.03239129  -129982.43687972
  entropy T*S    EENTRO =        -0.00000000
  eigenvalues    EBANDS =    -18647.34253670
  atomic energy  EATOM  =    106330.29339555
  Solvation  Ediel_sol  =         0.00000000
  ---------------------------------------------------
  free energy    TOTEN  =     -1371.25603755 eV

  energy without entropy =    -1371.25603755  energy(sigma->0) =    -1371.25603755


--------------------------------------------------------------------------------------------------------




--------------------------------------- Iteration      1(   2)  ---------------------------------------


    POTLOK:  cpu time    0.2125: real time    0.2136
    SETDIJ:  cpu time    0.0218: real time    0.0218
     EDDAV:  cpu time   27.8878: real time   27.9742
       DOS:  cpu time    0.0006: real time    0.0006
    CHARGE:  cpu time    1.2122: real time    1.2154
    MIXING:  cpu time    0.0063: real time    0.0063
    --------------------------------------------
      LOOP:  cpu time   29.3412: real time   29.4320

 eigenvalue-minimisations  :  6304
 total energy-change (2. order) :-0.1745092E+01  (-0.1192204E+00)
 number of electron    1211.9999974 magnetization       0.0000000
 augmentation part       73.8598790 magnetization      -0.0000000

 Broyden mixing:
  rms(total) = 0.40981E-01    rms(broyden)= 0.40864E-01
  rms(prec ) = 0.43098E-01
  weight for this iteration     100.00

 eigenvalues of (default mixing * dielectric matrix)
  average eigenvalue GAMMA=   0.7369
  0.7369

 Free energy of the ion-electron system (eV)
  ---------------------------------------------------
  alpha Z        PSCENC =      2161.47602710
  Ewald energy   TEWEN  =    383059.16833718
  -Hartree energ DENC   =   -480286.92787149
  -exchange      EXHF   =         0.00000000
  -V(xc)+E(xc)   XCENC  =      5331.82766474
  PAW double counting   =    130516.44529849  -129836.80888837
  entropy T*S    EENTRO =        -0.00000000
  eigenvalues    EBANDS =    -18648.47509279
  atomic energy  EATOM  =    106330.29339555
  Solvation  Ediel_sol  =         0.00000000
  ---------------------------------------------------
  free energy    TOTEN  =     -1373.00112961 eV

  energy without entropy =    -1373.00112961  energy(sigma->0) =    -1373.00112961


--------------------------------------------------------------------------------------------------------




--------------------------------------- Iteration      1(   3)  ---------------------------------------


    POTLOK:  cpu time    0.2100: real time    0.2107
    SETDIJ:  cpu time    0.0211: real time    0.0217
     EDDAV:  cpu time   30.1064: real time   30.1959
       DOS:  cpu time    0.0006: real time    0.0006
    CHARGE:  cpu time    1.2082: real time    1.2114
    MIXING:  cpu time    0.0066: real time    0.0066
    --------------------------------------------
      LOOP:  cpu time   31.5528: real time   31.6470

 eigenvalue-minimisations  :  6912
 total energy-change (2. order) :-0.9794355E-02  (-0.4309795E-02)
 number of electron    1211.9999974 magnetization       0.0000000
 augmentation part       73.8936772 magnetization       0.0000000

 Broyden mixing:
  rms(total) = 0.27816E-01    rms(broyden)= 0.27799E-01
  rms(prec ) = 0.28220E-01
  weight for this iteration     100.00

 eigenvalues of (default mixing * dielectric matrix)
  average eigenvalue GAMMA=   0.6913
  0.6913  0.6913

 Free energy of the ion-electron system (eV)
  ---------------------------------------------------
  alpha Z        PSCENC =      2161.47602710
  Ewald energy   TEWEN  =    383059.16833718
  -Hartree energ DENC   =   -480284.40045429
  -exchange      EXHF   =         0.00000000
  -V(xc)+E(xc)   XCENC  =      5331.63027675
  PAW double counting   =    130543.54462513  -129863.15148853
  entropy T*S    EENTRO =        -0.00000000
  eigenvalues    EBANDS =    -18651.57164284
  atomic energy  EATOM  =    106330.29339555
  Solvation  Ediel_sol  =         0.00000000
  ---------------------------------------------------
  free energy    TOTEN  =     -1373.01092396 eV

  energy without entropy =    -1373.01092396  energy(sigma->0) =    -1373.01092396


--------------------------------------------------------------------------------------------------------




--------------------------------------- Iteration      1(   4)  ---------------------------------------


    POTLOK:  cpu time    0.2121: real time    0.2137
    SETDIJ:  cpu time    0.0217: real time    0.0218
     EDDAV:  cpu time   25.6112: real time   25.6912
       DOS:  cpu time    0.0007: real time    0.0006
    CHARGE:  cpu time    1.2111: real time    1.2143
    MIXING:  cpu time    0.0092: real time    0.0092
    --------------------------------------------
      LOOP:  cpu time   27.0659: real time   27.1509

 eigenvalue-minimisations  :  5632
 total energy-change (2. order) :-0.5229306E-04  (-0.2154642E-03)
 number of electron    1211.9999974 magnetization       0.0000000
 augmentation part       73.8900232 magnetization       0.0000000

 Broyden mixing:
  rms(total) = 0.22465E-01    rms(broyden)= 0.22464E-01
  rms(prec ) = 0.22759E-01
  weight for this iteration     100.00

 eigenvalues of (default mixing * dielectric matrix)
  average eigenvalue GAMMA=   0.6844
  0.7704  0.7704  0.5123

 Free energy of the ion-electron system (eV)
  ---------------------------------------------------
  alpha Z        PSCENC =      2161.47602710
  Ewald energy   TEWEN  =    383059.16833718
  -Hartree energ DENC   =   -480285.08959931
  -exchange      EXHF   =         0.00000000
  -V(xc)+E(xc)   XCENC  =      5331.69896689
  PAW double counting   =    130573.10643359  -129892.66569152
  entropy T*S    EENTRO =        -0.00000000
  eigenvalues    EBANDS =    -18650.99884572
  atomic energy  EATOM  =    106330.29339555
  Solvation  Ediel_sol  =         0.00000000
  ---------------------------------------------------
  free energy    TOTEN  =     -1373.01097626 eV

  energy without entropy =    -1373.01097626  energy(sigma->0) =    -1373.01097626


--------------------------------------------------------------------------------------------------------




--------------------------------------- Iteration      1(   5)  ---------------------------------------


    POTLOK:  cpu time    0.2125: real time    0.2152
    SETDIJ:  cpu time    0.0217: real time    0.0218
     EDDAV:  cpu time   29.3339: real time   29.4216
       DOS:  cpu time    0.0006: real time    0.0006
    CHARGE:  cpu time    1.2071: real time    1.2103
    MIXING:  cpu time    0.0071: real time    0.0071
    --------------------------------------------
      LOOP:  cpu time   30.7829: real time   30.8766

 eigenvalue-minimisations  :  6720
 total energy-change (2. order) :-0.8845105E-05  (-0.1950545E-04)
 number of electron    1211.9999974 magnetization       0.0000000
 augmentation part       73.8960240 magnetization       0.0000000

 Broyden mixing:
  rms(total) = 0.18902E-01    rms(broyden)= 0.18902E-01
  rms(prec ) = 0.19151E-01
  weight for this iteration     100.00

 eigenvalues of (default mixing * dielectric matrix)
  average eigenvalue GAMMA=   0.7232
  0.9024  0.9024  0.5440  0.5440

 Free energy of the ion-electron system (eV)
  ---------------------------------------------------
  alpha Z        PSCENC =      2161.47602710
  Ewald energy   TEWEN  =    383059.16833718
  -Hartree energ DENC   =   -480285.12598329
  -exchange      EXHF   =         0.00000000
  -V(xc)+E(xc)   XCENC  =      5331.70295525
  PAW double counting   =    130591.09083001  -129910.61445479
  entropy T*S    EENTRO =        -0.00000000
  eigenvalues    EBANDS =    -18651.00209209
  atomic energy  EATOM  =    106330.29339555
  Solvation  Ediel_sol  =         0.00000000
  ---------------------------------------------------
  free energy    TOTEN  =     -1373.01098510 eV

  energy without entropy =    -1373.01098510  energy(sigma->0) =    -1373.01098510


--------------------------------------------------------------------------------------------------------




--------------------------------------- Iteration      1(   6)  ---------------------------------------


    POTLOK:  cpu time    0.2112: real time    0.2119
    SETDIJ:  cpu time    0.0216: real time    0.0217
     EDDAV:  cpu time   28.7808: real time   28.8676
       DOS:  cpu time    0.0007: real time    0.0007
    CHARGE:  cpu time    1.2234: real time    1.2267
    MIXING:  cpu time    0.0077: real time    0.0077
    --------------------------------------------
      LOOP:  cpu time   30.2454: real time   30.3363

 eigenvalue-minimisations  :  6560
 total energy-change (2. order) :-0.1183491E-04  (-0.2223995E-05)
 number of electron    1211.9999974 magnetization       0.0000000
 augmentation part       73.8973323 magnetization       0.0000000

 Broyden mixing:
  rms(total) = 0.16350E-01    rms(broyden)= 0.16350E-01
  rms(prec ) = 0.16578E-01
  weight for this iteration     100.00

 eigenvalues of (default mixing * dielectric matrix)
  average eigenvalue GAMMA=   0.8019
  1.1350  1.1350  0.5242  0.6076  0.6076

 Free energy of the ion-electron system (eV)
  ---------------------------------------------------
  alpha Z        PSCENC =      2161.47602710
  Ewald energy   TEWEN  =    383059.16833718
  -Hartree energ DENC   =   -480285.21943400
  -exchange      EXHF   =         0.00000000
  -V(xc)+E(xc)   XCENC  =      5331.71073973
  PAW double counting   =    130605.48135919  -129924.99373295
  entropy T*S    EENTRO =        -0.00000000
  eigenvalues    EBANDS =    -18650.92768872
  atomic energy  EATOM  =    106330.29339555
  Solvation  Ediel_sol  =         0.00000000
  ---------------------------------------------------
  free energy    TOTEN  =     -1373.01099694 eV

  energy without entropy =    -1373.01099694  energy(sigma->0) =    -1373.01099694


--------------------------------------------------------------------------------------------------------




--------------------------------------- Iteration      1(   7)  ---------------------------------------


    POTLOK:  cpu time    0.2113: real time    0.2122
    SETDIJ:  cpu time    0.0217: real time    0.0217
     EDDAV:  cpu time   28.8701: real time   28.9595
       DOS:  cpu time    0.0007: real time    0.0007
    CHARGE:  cpu time    1.2256: real time    1.2298
    MIXING:  cpu time    0.0075: real time    0.0075
    --------------------------------------------
      LOOP:  cpu time   30.3370: real time   30.4315

 eigenvalue-minimisations  :  6592
 total energy-change (2. order) :-0.6926275E-05  (-0.2422849E-05)
 number of electron    1211.9999974 magnetization       0.0000000
 augmentation part       73.8987082 magnetization       0.0000000

 Broyden mixing:
  rms(total) = 0.12933E-01    rms(broyden)= 0.12933E-01
  rms(prec ) = 0.13112E-01
  weight for this iteration     100.00

 eigenvalues of (default mixing * dielectric matrix)
  average eigenvalue GAMMA=   0.8640
  1.3509  1.3509  0.6886  0.6886  0.5526  0.5526

 Free energy of the ion-electron system (eV)
  ---------------------------------------------------
  alpha Z        PSCENC =      2161.47602710
  Ewald energy   TEWEN  =    383059.16833718
  -Hartree energ DENC   =   -480285.24131842
  -exchange      EXHF   =         0.00000000
  -V(xc)+E(xc)   XCENC  =      5331.71627388
  PAW double counting   =    130623.72407030  -129943.22326270
  entropy T*S    EENTRO =        -0.00000000
  eigenvalues    EBANDS =    -18650.92452674
  atomic energy  EATOM  =    106330.29339555
  Solvation  Ediel_sol  =         0.00000000
  ---------------------------------------------------
  free energy    TOTEN  =     -1373.01100386 eV

  energy without entropy =    -1373.01100386  energy(sigma->0) =    -1373.01100386


--------------------------------------------------------------------------------------------------------




--------------------------------------- Iteration      1(   8)  ---------------------------------------


    POTLOK:  cpu time    0.2122: real time    0.2140
    SETDIJ:  cpu time    0.0217: real time    0.0218
     EDDAV:  cpu time   27.1564: real time   27.2389
       DOS:  cpu time    0.0006: real time    0.0006
    CHARGE:  cpu time    1.2221: real time    1.2252
    MIXING:  cpu time    0.0077: real time    0.0077
    --------------------------------------------
      LOOP:  cpu time   28.6207: real time   28.7082

 eigenvalue-minimisations  :  6112
 total energy-change (2. order) :-0.5005219E-05  (-0.1760200E-05)
 number of electron    1211.9999974 magnetization       0.0000000
 augmentation part       73.9002305 magnetization       0.0000000

 Broyden mixing:
  rms(total) = 0.10548E-01    rms(broyden)= 0.10548E-01
  rms(prec ) = 0.10686E-01
  weight for this iteration     100.00

 eigenvalues of (default mixing * dielectric matrix)
  average eigenvalue GAMMA=   0.9175
  1.5832  1.5832  0.7711  0.7711  0.5357  0.5891  0.5891

 Free energy of the ion-electron system (eV)
  ---------------------------------------------------
  alpha Z        PSCENC =      2161.47602710
  Ewald energy   TEWEN  =    383059.16833718
  -Hartree energ DENC   =   -480285.25712603
  -exchange      EXHF   =         0.00000000
  -V(xc)+E(xc)   XCENC  =      5331.71949297
  PAW double counting   =    130636.64517990  -129956.13405657
  entropy T*S    EENTRO =        -0.00000000
  eigenvalues    EBANDS =    -18650.92225895
  atomic energy  EATOM  =    106330.29339555
  Solvation  Ediel_sol  =         0.00000000
  ---------------------------------------------------
  free energy    TOTEN  =     -1373.01100887 eV

  energy without entropy =    -1373.01100887  energy(sigma->0) =    -1373.01100887


--------------------------------------------------------------------------------------------------------




--------------------------------------- Iteration      1(   9)  ---------------------------------------


    POTLOK:  cpu time    0.2111: real time    0.2119
    SETDIJ:  cpu time    0.0217: real time    0.0217
     EDDAV:  cpu time   20.1154: real time   20.1743
       DOS:  cpu time    0.0006: real time    0.0007
    CHARGE:  cpu time    1.2130: real time    1.2198
    MIXING:  cpu time    0.0180: real time    0.0182
    --------------------------------------------
      LOOP:  cpu time   21.5798: real time   21.6465

 eigenvalue-minimisations  :  4096
 total energy-change (2. order) :-0.4233327E-05  (-0.4399897E-06)
 number of electron    1211.9999974 magnetization       0.0000000
 augmentation part       73.9011664 magnetization       0.0000000

 Broyden mixing:
  rms(total) = 0.90348E-02    rms(broyden)= 0.90348E-02
  rms(prec ) = 0.91556E-02
  weight for this iteration     100.00

 eigenvalues of (default mixing * dielectric matrix)
  average eigenvalue GAMMA=   1.0727
  2.1075  2.1075  0.9248  0.9248  0.6715  0.6715  0.5870  0.5870

 Free energy of the ion-electron system (eV)
  ---------------------------------------------------
  alpha Z        PSCENC =      2161.47602710
  Ewald energy   TEWEN  =    383059.16833718
  -Hartree energ DENC   =   -480285.26200910
  -exchange      EXHF   =         0.00000000
  -V(xc)+E(xc)   XCENC  =      5331.72079738
  PAW double counting   =    130644.89354344  -129964.37988579
  entropy T*S    EENTRO =        -0.00000000
  eigenvalues    EBANDS =    -18650.92121884
  atomic energy  EATOM  =    106330.29339555
  Solvation  Ediel_sol  =         0.00000000
  ---------------------------------------------------
  free energy    TOTEN  =     -1373.01101310 eV

  energy without entropy =    -1373.01101310  energy(sigma->0) =    -1373.01101310


--------------------------------------------------------------------------------------------------------




--------------------------------------- Iteration      1(  10)  ---------------------------------------


    POTLOK:  cpu time    0.2368: real time    0.2378
    SETDIJ:  cpu time    0.0236: real time    0.0236
     EDDAV:  cpu time   28.2838: real time   28.3657
       DOS:  cpu time    0.0010: real time    0.0006
    CHARGE:  cpu time    1.2188: real time    1.2231
    MIXING:  cpu time    0.0091: real time    0.0091
    --------------------------------------------
      LOOP:  cpu time   29.7730: real time   29.8600

 eigenvalue-minimisations  :  6464
 total energy-change (2. order) :-0.5590337E-05  (-0.2640875E-05)
 number of electron    1211.9999974 magnetization      -0.0000000
 augmentation part       73.9024825 magnetization       0.0000000

 Broyden mixing:
  rms(total) = 0.51514E-02    rms(broyden)= 0.51513E-02
  rms(prec ) = 0.52243E-02
  weight for this iteration     100.00

 eigenvalues of (default mixing * dielectric matrix)
  average eigenvalue GAMMA=   1.1360
  2.4302  2.4302  1.0685  1.0685  0.6999  0.6999  0.5961  0.6153  0.6153

 Free energy of the ion-electron system (eV)
  ---------------------------------------------------
  alpha Z        PSCENC =      2161.47602710
  Ewald energy   TEWEN  =    383059.16833718
  -Hartree energ DENC   =   -480285.27036103
  -exchange      EXHF   =         0.00000000
  -V(xc)+E(xc)   XCENC  =      5331.72459392
  PAW double counting   =    130665.57439221  -129985.05194981
  entropy T*S    EENTRO =        -0.00000000
  eigenvalues    EBANDS =    -18650.92545380
  atomic energy  EATOM  =    106330.29339555
  Solvation  Ediel_sol  =         0.00000000
  ---------------------------------------------------
  free energy    TOTEN  =     -1373.01101869 eV

  energy without entropy =    -1373.01101869  energy(sigma->0) =    -1373.01101869


[...]
   -.320E+02 0.603E+01 -.166E+04   0.333E+02 -.740E+01 0.167E+04   -.134E+01 0.137E+01 -.112E+02   -.825E-03 0.434E-03 -.208E-03
   0.763E+02 0.439E+02 -.160E+04   -.750E+02 -.464E+02 0.161E+04   -.126E+01 0.258E+01 -.117E+02   -.616E-03 0.692E-04 -.508E-03
   0.511E+02 -.695E+02 -.156E+04   -.484E+02 0.688E+02 0.157E+04   -.268E+01 0.797E+00 -.115E+02   -.464E-03 0.413E-03 -.518E-03
   -.121E+03 0.933E+02 -.158E+04   0.124E+03 -.957E+02 0.159E+04   -.330E+01 0.248E+01 -.117E+02   -.205E-03 -.239E-03 0.159E-03
   -.632E+02 -.494E+02 -.180E+04   0.631E+02 0.533E+02 0.181E+04   0.170E+00 -.388E+01 -.184E+02   -.256E-03 -.306E-03 -.146E-02
   0.412E+02 -.236E+02 -.179E+04   -.409E+02 0.276E+02 0.181E+04   -.289E+00 -.399E+01 -.182E+02   -.236E-04 0.808E-04 -.119E-02
   0.265E+03 -.587E+02 -.154E+04   -.276E+03 0.605E+02 0.154E+04   0.108E+02 -.175E+01 -.652E+01   -.296E-03 -.155E-03 -.677E-03
   -.395E+02 -.532E+02 -.177E+04   0.392E+02 0.576E+02 0.179E+04   0.288E+00 -.438E+01 -.184E+02   0.239E-03 -.339E-03 -.114E-02
   -.198E+03 -.237E+03 -.170E+04   0.205E+03 0.250E+03 0.171E+04   -.746E+01 -.126E+02 -.102E+02   0.348E-03 -.396E-03 -.940E-03
   -.179E+03 0.254E+03 -.167E+04   0.186E+03 -.269E+03 0.169E+04   -.652E+01 0.153E+02 -.125E+02   0.908E-05 0.719E-03 -.573E-03
   -.642E+02 0.411E+02 -.184E+03   0.693E+02 -.431E+02 0.183E+03   -.514E+01 0.197E+01 0.234E+00   -.249E-05 -.176E-04 -.185E-05
   0.237E+01 0.398E+02 -.197E+03   -.105E+01 -.418E+02 0.192E+03   -.132E+01 0.202E+01 0.504E+01   -.143E-04 -.373E-04 0.606E-04
   0.753E+02 0.189E+01 -.185E+03   -.805E+02 -.226E+00 0.186E+03   0.522E+01 -.167E+01 -.493E+00   -.691E-05 -.143E-04 -.822E-05
   0.848E+02 -.133E+02 -.209E+03   -.900E+02 0.149E+02 0.208E+03   0.522E+01 -.164E+01 0.315E+00   -.241E-05 -.119E-04 0.288E-04
   0.615E+01 0.604E+02 -.189E+03   -.551E+01 -.647E+02 0.193E+03   -.634E+00 0.430E+01 -.338E+01   0.247E-05 -.118E-04 -.183E-04
   0.983E+01 0.438E+02 -.170E+03   -.927E+01 -.456E+02 0.165E+03   -.552E+00 0.185E+01 0.516E+01   0.246E-06 -.337E-04 -.156E-04
   -.719E+02 0.223E+02 -.222E+03   0.772E+02 -.238E+02 0.224E+03   -.531E+01 0.147E+01 -.147E+01   -.453E-04 -.135E-04 0.244E-04
   0.991E+01 -.587E+01 -.200E+03   -.106E+02 0.761E+01 0.205E+03   0.720E+00 -.174E+01 -.516E+01   0.136E-05 -.325E-05 -.144E-04
   0.814E+02 -.339E+02 -.204E+03   -.868E+02 0.352E+02 0.203E+03   0.538E+01 -.130E+01 0.128E+01   0.328E-05 -.174E-04 0.442E-04
   0.161E+02 -.423E+02 -.198E+03   -.180E+02 0.447E+02 0.202E+03   0.195E+01 -.230E+01 -.459E+01   -.875E-05 0.259E-05 -.994E-05
   -.652E+01 -.698E+02 -.189E+03   0.684E+01 0.739E+02 0.185E+03   -.324E+00 -.413E+01 0.364E+01   0.533E-05 0.338E-04 0.213E-04
   -.707E+02 -.621E+01 -.200E+03   0.759E+02 0.461E+01 0.201E+03   -.526E+01 0.160E+01 -.107E+01   -.106E-04 0.576E-05 0.755E-05
   0.940E+02 0.127E+03 -.733E+03   -.942E+02 -.127E+03 0.733E+03   0.147E+00 0.164E+00 0.205E+00   -.855E-05 -.887E-04 -.362E-04
   0.932E+02 0.469E+02 -.821E+03   -.942E+02 -.490E+02 0.820E+03   0.106E+01 0.216E+01 0.646E+00   0.281E-07 -.251E-04 0.157E-03
   -.189E+02 0.775E+02 -.770E+03   0.190E+02 -.782E+02 0.771E+03   -.414E-01 0.767E+00 -.518E+00   0.100E-04 -.312E-04 0.234E-04
   -.421E+02 0.430E+02 -.884E+03   0.416E+02 -.450E+02 0.885E+03   0.556E+00 0.201E+01 -.153E+01   -.699E-04 -.651E-04 0.226E-03
   0.106E+03 -.105E+03 -.857E+03   -.107E+03 0.106E+03 0.858E+03   0.104E+01 -.405E+00 -.176E+01   -.106E-03 -.118E-03 0.246E-03
   -.482E+02 -.138E+03 -.801E+03   0.494E+02 0.139E+03 0.802E+03   -.116E+01 -.946E+00 -.713E+00   -.506E-04 0.107E-04 0.570E-04
 -----------------------------------------------------------------------------------------------
   0.237E+02 0.104E+02 0.918E+02   0.213E-12 -.341E-12 -.218E-10   -.239E+02 -.104E+02 -.917E+02   0.179E-02 0.162E-02 0.335E-01
 
 
 POSITION                                       TOTAL-FORCE (eV/Angst)
 -----------------------------------------------------------------------------------
      0.99046      3.89727      0.91670        -1.493562     -1.870681     -0.654871
      4.22806      9.97101      0.91670        -1.485424     -1.883739     -0.732946
      8.54576      3.89727      0.91670        -1.348415     -1.903102     -0.719252
     11.78336      9.97101      0.91670        -1.361848     -1.839190     -0.696532
      0.16045     10.12553      1.16818        -0.276880      1.644851      0.440569
      4.47815      4.05179      1.16818        -0.170533      1.716635      0.192713
      7.71575     10.12553      1.16818        -0.085653      1.773727      0.207188
     12.03345      4.05179      1.16818        -0.176804      1.765032      0.541131
      3.52055      0.82336      1.36715        -0.847014     -0.875363      1.556952
      6.75815      6.89709      1.36715        -0.796176     -0.913476      1.577704
     11.07585      0.82336      1.36715        -0.767735     -0.829760      1.730746
     14.31345      6.89709      1.36715        -0.914725     -0.920773      1.755314
      2.69053      7.05173      1.61862         1.477834      0.462556     -2.485566
      7.00822      0.97799      1.61862         1.612628      0.445963     -2.463877
     10.24583      7.05173      1.61862         1.670755      0.391979     -2.383674
     14.56352      0.97799      1.61862         1.482532      0.506486     -2.400210
      0.53161     11.93245      4.09606        -0.000918      0.000976     -0.002134
      4.86410      5.87397      4.10065         0.001664     -0.003123     -0.002907
      8.11892     11.96006      4.11277         0.006210      0.002884     -0.003528
     12.41477      5.87728      4.13387        -0.002394     -0.001759     -0.005220
      0.81683      6.01020      4.37028         0.003263      0.002036     -0.002050
      4.04437     12.08536      4.36507        -0.002178      0.002734     -0.004007
      8.36463      5.98180      4.37533         0.002750     -0.000783     -0.001366
     11.58767     12.08976      4.38818         0.001858      0.003271     -0.006075
     -0.18226      2.79938      4.58756         0.003676      0.000896     -0.003296
      3.03206      8.86616      4.58567        -0.001867     -0.005065     -0.002269
      7.37285      2.77427      4.57778        -0.002455      0.003755     -0.003443
     10.66193      8.85771      4.58831         0.000155     -0.000205     -0.007675
      3.35612      2.93539      4.79997         0.000138      0.003088     -0.003872
      6.56798      9.02465      4.78458         0.002237     -0.003882     -0.007419
     10.92013      2.97180      4.88358         0.003187      0.004783     -0.003394
     14.12628      8.98918      4.86335         0.004235      0.001048     -0.002590
      1.16566      7.80939      7.52349         0.001843      0.000204      0.000159
      5.44007      1.69550      7.48766        -0.004303      0.008293     -0.006952
      8.69502      7.85452      7.30014        -0.000125     -0.007067     -0.004884
     13.04397      1.66606      7.53487        -0.006422      0.003244     -0.001233
      1.48138      1.95149      7.47501         0.012107      0.002484     -0.003979
      4.69622      8.00836      7.49673        -0.004634     -0.005440      0.000776
      8.94014      1.91884      7.57983         0.009717      0.006385     -0.004288
     12.23543      8.07177      7.73347        -0.001619     -0.000027     -0.003413
     -0.56881     10.79938      7.77713         0.006518     -0.001102     -0.003264
      3.72830      4.72465      7.79401        -0.002899     -0.001771     -0.006019
      6.94537     10.77250      7.78032         0.002408      0.001155     -0.000119
     11.56594      4.67789      7.89791        -0.000715     -0.005496     -0.002959
     -0.19562      4.94638      8.05152         0.002541      0.001245      0.003432
      2.91668     11.01507      8.05414        -0.003245     -0.005928     -0.006207
      7.18776      4.83000      8.04387         0.000290      0.000912     -0.003669
     10.46905     11.01439      8.08662         0.001300      0.002177     -0.000340
     10.07434      6.63057      9.92671         0.003424     -0.008325      0.002305
      0.18233      2.09605      0.00000         0.273012      0.967435      1.241009
      3.41993      8.16979      0.00000         0.291479      0.996656      1.245200
      7.73763      2.09605      0.00000         0.253278      0.969761      1.252979
     10.97523      8.16979      0.00000         0.247156      0.986527      1.251928
      2.77584      5.24249      0.37900        -0.006569     -0.927567      0.567559
      6.01345     11.31622      0.37900        -0.046165     -0.932624      0.565524
     10.33114      5.24249      0.37900        -0.099796     -0.918125      0.551726
     13.56875     11.31622      0.37900        -0.043045     -0.928918      0.548778
      2.16153     10.82255      0.59691         0.414485      1.203934     -0.201897
      6.47922      4.74881      0.59691         0.386486      1.218131     -0.211998
      9.71683     10.82255      0.59691         0.352399      1.181731     -0.216906
     14.03452      4.74881      0.59691         0.410031      1.183978     -0.225969
      2.73983      2.74654      1.05910         1.186414     -1.033172     -0.441926
      5.97744      8.82028      1.05910         1.156428     -1.049692     -0.420239
     10.29513      2.74654      1.05910         1.113895     -1.043381     -0.479227
     13.53273      8.82028      1.05910         1.138325     -1.023662     -0.483506
      0.94100      8.20246      1.47622        -1.095008     -0.301298     -0.916236
      5.25870      2.12872      1.47622        -1.121935     -0.318080     -0.904386
      8.49630      8.20246      1.47622        -1.191612     -0.309235     -0.907792
     12.81400      2.12872      1.47622        -1.137069     -0.337788     -0.925004
      1.51931      0.12646      1.93841         0.325364     -0.088361      0.217230
      4.75691      6.20019      1.93841         0.419116     -0.007328      0.202948
      9.07461      0.12646      1.93841         0.425240     -0.028180      0.267727
     12.31221      6.20019      1.93841         0.363984     -0.062852      0.276554
      0.90515      5.70640      2.15632        -0.356040      0.334514      0.059873
      4.14276     11.78014      2.15632        -0.348365      0.306234      0.133042
      8.46045      5.70640      2.15632        -0.424166      0.312978      0.196712
     11.69806     11.78014      2.15632        -0.418582      0.317173      0.205831
      0.26091      2.77910      2.53532         0.220860      0.380672      0.442184
      3.49852      8.85284      2.53532         0.244179      0.429436      0.591739
      7.81621      2.77910      2.53532         0.254141      0.389107      0.454841
     11.05382      8.85284      2.53532         0.270291      0.398783      0.576978
     -0.22443     10.11540      3.20471        -0.001440      0.001995      0.003147
      4.12033      4.05543      3.19723         0.004394      0.004390     -0.005704
      7.35051     10.13111      3.19696        -0.005408      0.000687      0.000199
     11.66110      4.03940      3.20820        -0.000033     -0.009621      0.014049
      3.39644      1.13204      3.50087        -0.014728     -0.005449     -0.001718
      6.63442      7.21009      3.51616         0.005379      0.001473     -0.001518
     10.95611      1.14060      3.52347        -0.008070      0.001428     -0.005545
     14.19562      7.20982      3.51835         0.005701     -0.001189     -0.002465
      2.81141      6.71093      3.84569         0.007242      0.004002      0.000990
      7.14016      0.61698      3.85121         0.010622     -0.005155      0.006380
     10.35778      6.70245      3.85245        -0.005087      0.008996      0.003361
     14.66501      0.64173      3.85846        -0.003396     -0.010313      0.000418
      2.28176     10.81153      4.33173        -0.003932      0.000323      0.006080
      6.60009      4.72841      4.31907         0.002051     -0.003187      0.003927
      9.84057     10.79523      4.33725         0.002146     -0.003683     -0.002046
     14.17013      4.74477      4.35480         0.004449     -0.000399     -0.000214
      1.60938      4.07066      4.58845        -0.002984      0.001357     -0.002834
      4.81988     10.14323      4.64027         0.002532     -0.003693     -0.000746
      9.13662      4.07293      4.65972        -0.007780     -0.002497     -0.004425
     12.38027     10.16668      4.66190         0.004368     -0.008682     -0.004791
      1.04309      8.16295      5.14289         0.000322      0.002594     -0.002702
      5.36446      2.05427      5.10144         0.002052     -0.000630      0.001406
      8.61508      8.14192      5.12445        -0.000429      0.007843      0.005986
     12.91513      2.06754      5.20891        -0.001050     -0.002552     -0.000635
      1.60436      1.57608      5.35404        -0.000231     -0.000388      0.000959
      4.81318      7.65930      5.37366        -0.001869      0.004545      0.007723
      9.15379      1.59023      5.40793         0.004956      0.002405     -0.000227
     12.37654      7.67718      5.38544        -0.001583      0.001051      0.005452
     -0.25811     10.85441      5.75170        -0.005908     -0.003774      0.003439
      4.07454      4.80403      5.76679         0.001585      0.002122     -0.001894
      7.30824     10.84806      5.75413         0.000474     -0.002726      0.003377
     11.65069      4.77300      5.74621         0.003435     -0.005090      0.004790
      0.55282      5.98438      6.43938        -0.008383      0.005137      0.001298
      3.65395     12.05448      6.42482        -0.000123     -0.002637      0.005264
      7.93436      5.97988      6.45587         0.003066     -0.000430      0.002671
     11.12529     12.07737      6.44804         0.001919      0.000302      0.000692
      2.97838      9.11466      6.77491         0.002411      0.001490      0.004599
      7.24483      3.06013      6.71620         0.000702      0.003149      0.005303
     10.50763      9.07227      6.80416         0.012387     -0.005661      0.006500
     -0.15191      3.07110      6.71790        -0.002333      0.002964      0.001706
      3.46618      2.60017      6.95620        -0.002626      0.002085      0.006878
      6.69189      8.64369      6.95144         0.004002      0.006965      0.005441
     10.94913      2.68341      7.14333        -0.009463     -0.006865     -0.005398
     14.25463      8.65435      7.05247         0.001169      0.006894      0.000648
      3.01338      6.73730      7.86811        -0.000945      0.008032     -0.006229
      7.24681      0.61728      7.78881        -0.003929     -0.001117      0.012832
     10.45284      6.59488      7.75073         0.006599     -0.000537      0.004888
     14.87585      0.68606      7.85953         0.006312     -0.010193      0.003959
      2.20217      0.04526      7.92747        -0.013812     -0.014556     -0.000817
      5.45667      6.13554      8.08935         0.002501      0.007053      0.006606
      9.68091      0.00696      8.07125        -0.002805     -0.009485     -0.001405
     13.08767      6.10885      7.85709        -0.001468      0.003549     -0.003685
      1.75366      3.89187      8.44592         0.007573     -0.004296      0.004048
      4.93730      9.94685      8.42031        -0.002012     -0.003970      0.000826
      8.67101      3.56539      8.79260        -0.000119     -0.003219     -0.001326
     12.52748     10.18002      8.24907         0.003282      0.010978     -0.006765
      1.13124      9.72195      8.54413         0.004630     -0.003802     -0.001566
      5.39036      3.61818      8.50962         0.003115     -0.002269     -0.000571
      8.61096      9.64050      8.49611        -0.002959      0.000476      0.000734
     13.23136      3.56292      8.49916        -0.001598      0.012160     -0.005093
      0.46114      6.61145      8.99281        -0.005406     -0.002001     -0.005847
      4.71642      0.52197      8.97280         0.009510      0.001348      0.008625
      8.16917      6.60549      9.06034        -0.008477      0.001940     -0.001025
     12.24954      0.52432      8.99860        -0.008944      0.006241      0.014553
     11.39721      8.08939      9.67330        -0.002483      0.003686     -0.003277
     11.03566      4.95788      9.88356        -0.002120     -0.007160      0.003609
      9.64938      2.89739     13.00653        -0.007968      0.010920      0.007974
      8.75815      4.07655     11.06739        -0.003742      0.007152      0.004683
      6.58692      2.51424     12.84735        -0.010945      0.002969     -0.009014
      7.44490      4.80493     12.01405        -0.008231      0.013331      0.005454
      7.75969      1.31320     13.42304         0.001671      0.007014     -0.002084
      7.74674      1.80275     11.71305         0.012460      0.003799     -0.006732
     10.41535      5.33749     12.71236        -0.005594      0.004096      0.002479
      8.46875      3.64336     14.08883        -0.011991      0.009020      0.009203
      7.99966      7.17684     12.20302         0.005244      0.004711     -0.001069
      9.52248      8.50780     13.81355        -0.003888     -0.003250     -0.001580
      9.97076      8.86326     12.14837         0.004493     -0.002717      0.017755
     10.95132      7.71835     13.09674         0.005034      0.001497      0.005554
      7.62505      2.16671     12.74412         0.008262      0.000000     -0.001771
      8.49059      4.46073     12.07162         0.005304      0.000005     -0.002075
      8.61852      3.28488     13.05772         0.007264      0.002921      0.003221
      9.38763      5.60816     12.43105        -0.002422      0.011803      0.007377
      9.03636      6.91852     12.45840         0.004590     -0.010287     -0.004654
      9.92493      8.05266     12.89466         0.000569      0.015055     -0.006383
 -----------------------------------------------------------------------------------
    total drift:                               -0.210200     -0.001595      0.071576


--------------------------------------------------------------------------------------------------------



  FREE ENERGIE OF THE ION-ELECTRON SYSTEM (eV)
  ---------------------------------------------------
  free  energy   TOTEN  =     -1392.13137245 eV

  energy  without entropy=    -1392.13137245  energy(sigma->0) =    -1392.13137245
 


--------------------------------------------------------------------------------------------------------


    POTLOK:  cpu time    0.2343: real time    0.2350


--------------------------------------------------------------------------------------------------------


     LOOP+:  cpu time  361.2111: real time  362.3569
    4ORBIT:  cpu time    0.0000: real time    0.0000

 total amount of memory used by VASP MPI-rank0   174987. kBytes
=======================================================================

   base      :      30000. kBytes
   nonlr-proj:      11699. kBytes
   fftplans  :       9317. kBytes
   grid      :      26149. kBytes
   one-center:        870. kBytes
   wavefun   :      96952. kBytes
 
  
  
 General timing and accounting informations for this job:
 ========================================================
  
                  Total CPU time used (sec):      377.554
                            User time (sec):      361.944
                          System time (sec):       15.610
                         Elapsed time (sec):      379.075
  
                   Maximum memory used (kb):      435592.
                   Average memory used (kb):           0.
  
                          Minor page faults:        84627
                          Major page faults:            0
                 Voluntary context switches:          994
