       N       E                     dE             d eps       ncg     rms          rms(c)
DAV:   1    -0.137723022244E+04   -0.13772E+04   -0.13401E+00  6272   0.982E-01    0.947E-01
DAV:   2    -0.137897411478E+04   -0.17439E+01   -0.11935E+00  6080   0.955E-01    0.412E-01
DAV:   3    -0.137898386339E+04   -0.97486E-02   -0.43689E-02  6720   0.231E-01    0.275E-01
DAV:   4    -0.137898391359E+04   -0.50199E-04   -0.21352E-03  5696   0.570E-02    0.223E-01
DAV:   5    -0.137898391929E+04   -0.56937E-05   -0.19066E-04  6656   0.178E-02    0.188E-01
DAV:   6    -0.137898393193E+04   -0.12640E-04   -0.24176E-05  7072   0.729E-03    0.160E-01
DAV:   7    -0.137898393783E+04   -0.59073E-05   -0.22971E-05  6848   0.800E-03    0.129E-01
DAV:   8    -0.137898394266E+04   -0.48224E-05   -0.18252E-05  7008   0.669E-03    0.105E-01
DAV:   9    -0.137898394684E+04   -0.41789E-05   -0.58938E-06  7072   0.365E-03    0.877E-02
DAV:  10    -0.137898395170E+04   -0.48618E-05   -0.16663E-05  6656   0.685E-03    0.556E-02
DAV:  11    -0.137898395517E+04   -0.34694E-05   -0.32050E-05  6592   0.912E-03    0.179E-02
DAV:  12    -0.137898395621E+04   -0.10469E-05   -0.46247E-06  7168   0.276E-03    0.112E-02
DAV:  13    -0.137898395633E+04   -0.11385E-06   -0.94353E-07  6336   0.159E-03    0.477E-03
DAV:  14    -0.137898395630E+04    0.29904E-07   -0.38853E-07  7040   0.809E-04    0.280E-03
DAV:  15    -0.137898395621E+04    0.84488E-07   -0.26591E-08  3344   0.328E-04    0.128E-03
DAV:  16    -0.137898395617E+04    0.44936E-07   -0.53433E-08  4224   0.290E-04    0.493E-04
DAV:  17    -0.137898395613E+04    0.39421E-07   -0.48639E-09  2944   0.118E-04    0.397E-04
DAV:  18    -0.137898395612E+04    0.80472E-08   -0.23795E-09  3008   0.881E-05
   1 F= -.13983705E+04 E0= -.13983705E+04  d E =-.139837E+04  mag=    -0.0000
       N       E                     dE             d eps       ncg     rms          rms(c)
DAV:   1    -0.137898291394E+04    0.10422E-02   -0.58174E-01  5120   0.873E-01    0.117E-01
DAV:   2    -0.137898325893E+04   -0.34498E-03   -0.52274E-03  5472   0.797E-02    0.762E-02
DAV:   3    -0.137898320020E+04    0.58732E-04   -0.55141E-04  6240   0.364E-02    0.317E-02
DAV:   4    -0.137898320303E+04   -0.28318E-05   -0.10803E-04  6080   0.147E-02    0.152E-02
DAV:   5    -0.137898320048E+04    0.25504E-05   -0.23207E-05  6304   0.703E-03    0.716E-03
DAV:   6    -0.137898320001E+04    0.46853E-06   -0.33159E-06  5952   0.247E-03    0.353E-03
DAV:   7    -0.137898319993E+04    0.82771E-07   -0.17864E-06  6464   0.202E-03    0.147E-03
DAV:   8    -0.137898319996E+04   -0.33004E-07   -0.32106E-07  5952   0.988E-04    0.944E-04
DAV:   9    -0.137898320006E+04   -0.96465E-07   -0.11566E-07  5088   0.577E-04    0.462E-04
DAV:  10    -0.137898320015E+04   -0.96392E-07   -0.53133E-08  4816   0.481E-04    0.386E-04
DAV:  11    -0.137898320024E+04   -0.87821E-07   -0.39484E-08  4496   0.322E-04    0.213E-04
DAV:  12    -0.137898320033E+04   -0.87413E-07   -0.79551E-09  3264   0.193E-04    0.121E-04
DAV:  13    -0.137898320043E+04   -0.10504E-06   -0.13086E-08  3680   0.195E-04    0.154E-04
DAV:  14    -0.137898320049E+04   -0.52722E-07   -0.61152E-09  3232   0.124E-04    0.871E-05
DAV:  15    -0.137898320053E+04   -0.42841E-07   -0.39398E-09  3072   0.909E-05    0.492E-05
DAV:  16    -0.137898320056E+04   -0.36147E-07   -0.22154E-09  3072   0.598E-05    0.594E-05
DAV:  17    -0.137898320059E+04   -0.23792E-07   -0.84603E-10  3072   0.449E-05    0.380E-05
DAV:  18    -0.137898320061E+04   -0.18947E-07   -0.99509E-10  3072   0.498E-05    0.263E-05
DAV:  19    -0.137898320061E+04   -0.58499E-08    0.97582E-11  2944   0.279E-05
   2 F= -.13983699E+04 E0= -.13983699E+04  d E =0.580650E-03  mag=    -0.0000
       N       E                     dE             d eps       ncg     rms          rms(c)
DAV:   1    -0.137898275400E+04    0.44661E-03   -0.11606E+00  5120   0.122E+00    0.135E-01
DAV:   2    -0.137898360581E+04   -0.85181E-03   -0.11095E-02  5504   0.109E-01    0.820E-02
DAV:   3    -0.137898351839E+04    0.87420E-04   -0.81485E-04  6176   0.353E-02    0.436E-02
DAV:   4    -0.137898349650E+04    0.21890E-04   -0.23438E-04  5536   0.224E-02    0.157E-02
DAV:   5    -0.137898349519E+04    0.13091E-05   -0.53024E-05  5376   0.102E-02    0.103E-02
DAV:   6    -0.137898349531E+04   -0.12467E-06   -0.14420E-05  6864   0.427E-03    0.623E-03
DAV:   7    -0.137898349484E+04    0.47086E-06   -0.25063E-06  6656   0.231E-03    0.347E-03
DAV:   8    -0.137898349485E+04   -0.10928E-07   -0.14766E-06  6176   0.178E-03    0.175E-03
DAV:   9    -0.137898349489E+04   -0.30530E-07   -0.35090E-07  6144   0.893E-04    0.858E-04
DAV:  10    -0.137898349503E+04   -0.14782E-06   -0.87223E-08  4800   0.474E-04    0.326E-04
DAV:  11    -0.137898349522E+04   -0.18398E-06   -0.35496E-08  4576   0.366E-04    0.304E-04
DAV:  12    -0.137898349538E+04   -0.16505E-06   -0.26981E-08  4416   0.282E-04    0.139E-04
DAV:  13    -0.137898349549E+04   -0.11048E-06   -0.65429E-09  3200   0.158E-04    0.105E-04
DAV:  14    -0.137898349560E+04   -0.11000E-06   -0.60437E-09  3264   0.119E-04    0.883E-05
DAV:  15    -0.137898349567E+04   -0.66939E-07   -0.37478E-09  3072   0.901E-05    0.402E-05
DAV:  16    -0.137898349573E+04   -0.55312E-07   -0.35560E-09  3072   0.761E-05    0.489E-05
DAV:  17    -0.137898349574E+04   -0.17069E-07   -0.99389E-10  3136   0.426E-05    0.436E-05
DAV:  18    -0.137898349576E+04   -0.14028E-07   -0.75660E-10  3072   0.453E-05    0.183E-05
DAV:  19    -0.137898349576E+04   -0.65629E-08    0.86856E-11  3072   0.279E-05
   3 F= -.13983700E+04 E0= -.13983700E+04  d E =-.115772E-03  mag=    -0.0000
       N       E                     dE             d eps       ncg     rms          rms(c)
DAV:   1    -0.137898282422E+04    0.67154E-03   -0.11576E+00  5120   0.124E+00    0.144E-01
DAV:   2    -0.137898345222E+04   -0.62800E-03   -0.10353E-02  5504   0.117E-01    0.103E-01
DAV:   3    -0.137898331817E+04    0.13405E-03   -0.12080E-03  6080   0.532E-02    0.456E-02
DAV:   4    -0.137898332424E+04   -0.60704E-05   -0.20549E-04  5984   0.202E-02    0.213E-02
DAV:   5    -0.137898331801E+04    0.62370E-05   -0.52551E-05  5536   0.128E-02    0.864E-03
DAV:   6    -0.137898331743E+04    0.57883E-06   -0.70427E-06  5856   0.416E-03    0.445E-03
DAV:   7    -0.137898331728E+04    0.14632E-06   -0.47496E-06  5984   0.338E-03    0.287E-03
DAV:   8    -0.137898331724E+04    0.39756E-07   -0.10111E-06  6432   0.163E-03    0.149E-03
DAV:   9    -0.137898331738E+04   -0.13625E-06   -0.43077E-07  5600   0.138E-03    0.845E-04
DAV:  10    -0.137898331766E+04   -0.27931E-06   -0.19617E-07  5744   0.945E-04    0.769E-04
DAV:  11    -0.137898331797E+04   -0.31567E-06   -0.14092E-07  5568   0.764E-04    0.337E-04
DAV:  12    -0.137898331840E+04   -0.42569E-06   -0.81358E-08  5120   0.620E-04    0.350E-04
DAV:  13    -0.137898331862E+04   -0.22171E-06   -0.44322E-08  4256   0.322E-04    0.251E-04
DAV:  14    -0.137898331877E+04   -0.15365E-06   -0.58661E-09  3296   0.111E-04    0.162E-04
DAV:  15    -0.137898331901E+04   -0.23886E-06   -0.15627E-08  3808   0.128E-04    0.871E-05
DAV:  16    -0.137898331909E+04   -0.73589E-07   -0.21090E-09  3136   0.713E-05    0.530E-05
DAV:  17    -0.137898331922E+04   -0.13645E-06   -0.58528E-09  3296   0.667E-05    0.462E-05
DAV:  18    -0.137898331926E+04   -0.37835E-07   -0.93999E-10  3136   0.487E-05    0.323E-05
DAV:  19    -0.137898331930E+04   -0.40251E-07   -0.15585E-09  3072   0.500E-05    0.478E-05
DAV:  20    -0.137898331932E+04   -0.16778E-07   -0.13019E-10  3136   0.380E-05    0.306E-05
DAV:  21    -0.137898331933E+04   -0.11089E-07   -0.38141E-10  3072   0.445E-05    0.306E-05
DAV:  22    -0.137898331933E+04   -0.49185E-08    0.37865E-10  3072   0.301E-05
   4 F= -.13983704E+04 E0= -.13983704E+04  d E =-.397290E-03  mag=     0.0000
       N       E                     dE             d eps       ncg     rms          rms(c)
DAV:   1    -0.137898250380E+04    0.81553E-03   -0.11643E+00  5120   0.122E+00    0.169E-01
DAV:   2    -0.137898338209E+04   -0.87829E-03   -0.12050E-02  5600   0.116E-01    0.114E-01
DAV:   3    -0.137898321166E+04    0.17043E-03   -0.11568E-03  6272   0.472E-02    0.560E-02
DAV:   4    -0.137898320029E+04    0.11375E-04   -0.28488E-04  6080   0.236E-02    0.210E-02
DAV:   5    -0.137898319592E+04    0.43725E-05   -0.51692E-05  5952   0.106E-02    0.114E-02
DAV:   6    -0.137898319339E+04    0.25293E-05   -0.76445E-06  5632   0.420E-03    0.551E-03
DAV:   7    -0.137898319232E+04    0.10706E-05   -0.41564E-06  6528   0.341E-03    0.227E-03
DAV:   8    -0.137898319191E+04    0.40213E-06   -0.96665E-07  5760   0.195E-03    0.135E-03
DAV:   9    -0.137898319191E+04    0.33178E-08   -0.57029E-07  6688   0.170E-03    0.979E-04
DAV:  10    -0.137898319234E+04   -0.43373E-06   -0.34131E-07  5952   0.156E-03    0.647E-04
DAV:  11    -0.137898319303E+04   -0.68183E-06   -0.39127E-07  5664   0.107E-03    0.442E-04
DAV:  12    -0.137898319350E+04   -0.47151E-06   -0.79609E-08  5280   0.349E-04    0.351E-04
DAV:  13    -0.137898319387E+04   -0.37315E-06   -0.17396E-08  3904   0.204E-04    0.198E-04
DAV:  14    -0.137898319446E+04   -0.58547E-06   -0.35683E-08  4224   0.188E-04    0.115E-04
DAV:  15    -0.137898319470E+04   -0.24281E-06   -0.83113E-09  3424   0.107E-04    0.707E-05
DAV:  16    -0.137898319493E+04   -0.23299E-06   -0.95201E-09  3424   0.899E-05    0.471E-05
DAV:  17    -0.137898319506E+04   -0.12785E-06   -0.54631E-09  3200   0.857E-05    0.328E-05
DAV:  18    -0.137898319513E+04   -0.68932E-07   -0.50239E-09  3168   0.971E-05    0.176E-05
DAV:  19    -0.137898319515E+04   -0.20300E-07   -0.34291E-09  3072   0.956E-05    0.137E-05
DAV:  20    -0.137898319516E+04   -0.10463E-07   -0.82823E-10  3136   0.475E-05    0.116E-05
DAV:  21    -0.137898319516E+04   -0.31578E-08    0.17471E-10  3072   0.242E-05
   5 F= -.13983696E+04 E0= -.13983696E+04  d E =0.872613E-03  mag=    -0.0000
       N       E                     dE             d eps       ncg     rms          rms(c)
DAV:   1    -0.137898213902E+04    0.10561E-02   -0.11788E+00  5088   0.107E+00    0.108E-01
DAV:   2    -0.137898244346E+04   -0.30443E-03   -0.60156E-03  5440   0.780E-02    0.656E-02
DAV:   3    -0.137898235325E+04    0.90214E-04   -0.60974E-04  5952   0.266E-02    0.221E-02
DAV:   4    -0.137898235399E+04   -0.74094E-06   -0.88239E-05  5984   0.965E-03    0.134E-02
DAV:   5    -0.137898235303E+04    0.95551E-06   -0.73714E-06  5888   0.306E-03    0.690E-03
DAV:   6    -0.137898235252E+04    0.50751E-06   -0.15441E-06  6432   0.208E-03    0.232E-03
DAV:   7    -0.137898235250E+04    0.20926E-07   -0.67420E-07  6656   0.105E-03    0.104E-03
DAV:   8    -0.137898235276E+04   -0.25363E-06   -0.13432E-07  5280   0.487E-04    0.700E-04
DAV:   9    -0.137898235304E+04   -0.28459E-06   -0.47422E-08  4288   0.380E-04    0.313E-04
DAV:  10    -0.137898235339E+04   -0.35006E-06   -0.62244E-08  4704   0.394E-04    0.227E-04
DAV:  11    -0.137898235366E+04   -0.26515E-06   -0.23436E-08  4192   0.195E-04    0.158E-04
DAV:  12    -0.137898235390E+04   -0.24447E-06   -0.99540E-09  3456   0.116E-04    0.943E-05
DAV:  13    -0.137898235412E+04   -0.21808E-06   -0.12204E-08  3712   0.105E-04    0.708E-05
DAV:  14    -0.137898235422E+04   -0.10167E-06   -0.38743E-09  3136   0.808E-05    0.432E-05
DAV:  15    -0.137898235429E+04   -0.73574E-07   -0.30422E-09  3072   0.786E-05    0.329E-05
DAV:  16    -0.137898235435E+04   -0.56287E-07   -0.27865E-09  3136   0.749E-05    0.346E-05
DAV:  17    -0.137898235438E+04   -0.27794E-07   -0.15707E-09  3072   0.712E-05    0.223E-05
DAV:  18    -0.137898235439E+04   -0.14814E-07   -0.56624E-10  3072   0.496E-05    0.167E-05
DAV:  19    -0.137898235440E+04   -0.59081E-08    0.43745E-10  2944   0.243E-05
   6 F= -.13983688E+04 E0= -.13983688E+04  d E =0.754942E-03  mag=    -0.0000
       N       E                     dE             d eps       ncg     rms          rms(c)
DAV:   1    -0.137898202406E+04    0.33034E-03   -0.11810E+00  5120   0.109E+00    0.140E-01
DAV:   2    -0.137898244300E+04   -0.41894E-03   -0.74190E-03  5408   0.897E-02    0.909E-02
DAV:   3    -0.137898235056E+04    0.92439E-04   -0.90422E-04  6304   0.402E-02    0.316E-02
DAV:   4    -0.137898235760E+04   -0.70399E-05   -0.14494E-04  5984   0.143E-02    0.188E-02
DAV:   5    -0.137898235373E+04    0.38738E-05   -0.20680E-05  5760   0.671E-03    0.865E-03
DAV:   6    -0.137898235259E+04    0.11400E-05   -0.42229E-06  6624   0.340E-03    0.311E-03
DAV:   7    -0.137898235261E+04   -0.27867E-07   -0.13166E-06  6720   0.198E-03    0.140E-03
DAV:   8    -0.137898235289E+04   -0.27675E-06   -0.37699E-07  6240   0.109E-03    0.978E-04
DAV:   9    -0.137898235347E+04   -0.58154E-06   -0.15149E-07  5520   0.108E-03    0.528E-04
DAV:  10    -0.137898235406E+04   -0.58836E-06   -0.17310E-07  5600   0.906E-04    0.382E-04
DAV:  11    -0.137898235471E+04   -0.64775E-06   -0.15184E-07  5344   0.627E-04    0.337E-04
DAV:  12    -0.137898235510E+04   -0.39118E-06   -0.40578E-08  4576   0.320E-04    0.195E-04
DAV:  13    -0.137898235541E+04   -0.31301E-06   -0.12482E-08  3616   0.171E-04    0.126E-04
DAV:  14    -0.137898235569E+04   -0.28111E-06   -0.11689E-08  3808   0.107E-04    0.716E-05
DAV:  15    -0.137898235586E+04   -0.16995E-06   -0.44255E-09  3232   0.702E-05    0.504E-05
DAV:  16    -0.137898235602E+04   -0.15589E-06   -0.68177E-09  3456   0.826E-05    0.438E-05
DAV:  17    -0.137898235607E+04   -0.54075E-07   -0.18911E-09  3136   0.656E-05    0.440E-05
DAV:  18    -0.137898235610E+04   -0.25495E-07   -0.70651E-10  3072   0.457E-05    0.274E-05
DAV:  19    -0.137898235612E+04   -0.23836E-07   -0.39842E-10  3072   0.436E-05    0.111E-05
DAV:  20    -0.137898235614E+04   -0.12544E-07    0.14620E-11  3072   0.312E-05    0.171E-05
DAV:  21    -0.137898235614E+04   -0.66939E-08    0.51324E-10  2944   0.184E-05
   7 F= -.13983693E+04 E0= -.13983693E+04  d E =-.447493E-03  mag=    -0.0000
       N       E                     dE             d eps       ncg     rms          rms(c)
DAV:   1    -0.137898283235E+04   -0.47621E-03   -0.11638E+00  5120   0.112E+00    0.196E-01
DAV:   2    -0.137898373771E+04   -0.90536E-03   -0.12465E-02  5632   0.106E-01    0.136E-01
DAV:   3    -0.137898354542E+04    0.19230E-03   -0.14186E-03  6112   0.526E-02    0.671E-02
DAV:   4    -0.137898354057E+04    0.48446E-05   -0.33623E-04  6336   0.243E-02    0.239E-02
DAV:   5    -0.137898353350E+04    0.70673E-05   -0.58090E-05  5728   0.117E-02    0.118E-02
DAV:   6    -0.137898353112E+04    0.23874E-05   -0.98227E-06  5760   0.453E-03    0.505E-03
DAV:   7    -0.137898353061E+04    0.51112E-06   -0.37927E-06  6720   0.301E-03    0.237E-03
DAV:   8    -0.137898353069E+04   -0.83863E-07   -0.76396E-07  5824   0.162E-03    0.142E-03
DAV:   9    -0.137898353113E+04   -0.43768E-06   -0.45469E-07  6720   0.150E-03    0.931E-04
DAV:  10    -0.137898353212E+04   -0.99759E-06   -0.34170E-07  5856   0.143E-03    0.516E-04
DAV:  11    -0.137898353329E+04   -0.11701E-05   -0.31499E-07  5456   0.115E-03    0.337E-04
DAV:  12    -0.137898353405E+04   -0.75897E-06   -0.14676E-07  4896   0.489E-04    0.323E-04
DAV:  13    -0.137898353437E+04   -0.31391E-06   -0.14061E-08  3776   0.148E-04    0.207E-04
DAV:  14    -0.137898353496E+04   -0.59440E-06   -0.27755E-08  4128   0.143E-04    0.122E-04
DAV:  15    -0.137898353525E+04   -0.29156E-06   -0.72710E-09  3376   0.898E-05    0.728E-05
DAV:  16    -0.137898353554E+04   -0.29079E-06   -0.10734E-08  3600   0.796E-05    0.513E-05
DAV:  17    -0.137898353568E+04   -0.13218E-06   -0.35905E-09  3072   0.662E-05    0.352E-05
DAV:  18    -0.137898353576E+04   -0.86482E-07   -0.39100E-09  3072   0.659E-05    0.282E-05
DAV:  19    -0.137898353579E+04   -0.28012E-07   -0.17453E-09  3136   0.692E-05    0.183E-05
DAV:  20    -0.137898353580E+04   -0.12951E-07   -0.10281E-09  3072   0.546E-05    0.173E-05
DAV:  21    -0.137898353581E+04   -0.31869E-08    0.25968E-11  3072   0.325E-05
   8 F= -.13983697E+04 E0= -.13983697E+04  d E =-.486192E-03  mag=    -0.0000
       N       E                     dE             d eps       ncg     rms          rms(c)
DAV:   1    -0.137898200958E+04    0.15262E-02   -0.11704E+00  5120   0.106E+00    0.297E-01
DAV:   2    -0.137898271505E+04   -0.70547E-03   -0.11782E-02  5696   0.109E-01    0.239E-01
DAV:   3    -0.137898255223E+04    0.16282E-03   -0.31355E-03  5760   0.881E-02    0.624E-02
DAV:   4    -0.137898252082E+04    0.31412E-04   -0.74717E-04  5728   0.340E-02    0.351E-02
DAV:   5    -0.137898250140E+04    0.19415E-04   -0.14294E-04  6240   0.178E-02    0.160E-02
DAV:   6    -0.137898249876E+04    0.26405E-05   -0.30240E-05  6080   0.728E-03    0.679E-03
DAV:   7    -0.137898249824E+04    0.52416E-06   -0.40458E-06  7008   0.291E-03    0.322E-03
DAV:   8    -0.137898249914E+04   -0.90542E-06   -0.12002E-06  6176   0.174E-03    0.182E-03
DAV:   9    -0.137898250048E+04   -0.13421E-05   -0.65296E-07  5984   0.153E-03    0.104E-03
DAV:  10    -0.137898250223E+04   -0.17496E-05   -0.35051E-07  5696   0.106E-03    0.633E-04
DAV:  11    -0.137898250415E+04   -0.19115E-05   -0.18571E-07  5344   0.817E-04    0.389E-04
DAV:  12    -0.137898250564E+04   -0.14915E-05   -0.12769E-07  4608   0.551E-04    0.290E-04
DAV:  13    -0.137898250660E+04   -0.96613E-06   -0.58802E-08  4544   0.254E-04    0.187E-04
DAV:  14    -0.137898250732E+04   -0.72080E-06   -0.23057E-08  4032   0.146E-04    0.116E-04
DAV:  15    -0.137898250771E+04   -0.39020E-06   -0.10586E-08  3680   0.903E-05    0.788E-05
DAV:  16    -0.137898250804E+04   -0.32246E-06   -0.79743E-09  3232   0.743E-05    0.478E-05
DAV:  17    -0.137898250825E+04   -0.21610E-06   -0.82326E-09  3552   0.790E-05    0.455E-05
DAV:  18    -0.137898250834E+04   -0.84154E-07   -0.32064E-09  3136   0.779E-05    0.265E-05
DAV:  19    -0.137898250838E+04   -0.42419E-07   -0.21447E-09  3072   0.739E-05    0.312E-05
DAV:  20    -0.137898250840E+04   -0.21188E-07   -0.60903E-10  3072   0.476E-05    0.246E-05
DAV:  21    -0.137898250841E+04   -0.13213E-07    0.11671E-10  3072   0.335E-05    0.115E-05
DAV:  22    -0.137898250842E+04   -0.74797E-08    0.38094E-10  3072   0.240E-05
   9 F= -.13983694E+04 E0= -.13983694E+04  d E =0.370672E-03  mag=    -0.0000
       N       E                     dE             d eps       ncg     rms          rms(c)
DAV:   1    -0.137898254119E+04   -0.32778E-04   -0.11516E+00  5120   0.105E+00    0.195E-01
DAV:   2    -0.137898354007E+04   -0.99887E-03   -0.12384E-02  5792   0.909E-02    0.144E-01
DAV:   3    -0.137898337485E+04    0.16522E-03   -0.11948E-03  6560   0.405E-02    0.787E-02
DAV:   4    -0.137898335521E+04    0.19635E-04   -0.33873E-04  5376   0.209E-02    0.277E-02
DAV:   5    -0.137898334425E+04    0.10965E-04   -0.12677E-04  5376   0.160E-02    0.119E-02
DAV:   6    -0.137898334569E+04   -0.14486E-05   -0.22544E-05  5472   0.555E-03    0.564E-03
DAV:   7    -0.137898334785E+04   -0.21571E-05   -0.41906E-06  5888   0.304E-03    0.233E-03
DAV:   8    -0.137898335034E+04   -0.24919E-05   -0.10072E-06  6080   0.126E-03    0.161E-03
DAV:   9    -0.137898335302E+04   -0.26800E-05   -0.75288E-07  5600   0.134E-03    0.117E-03
DAV:  10    -0.137898335610E+04   -0.30726E-05   -0.29937E-07  5008   0.706E-04    0.936E-04
DAV:  11    -0.137898335861E+04   -0.25157E-05   -0.52199E-07  5216   0.814E-04    0.531E-04
DAV:  12    -0.137898336037E+04   -0.17546E-05   -0.12135E-07  4768   0.400E-04    0.408E-04
DAV:  13    -0.137898336142E+04   -0.10566E-05   -0.67349E-08  4768   0.271E-04    0.166E-04
DAV:  14    -0.137898336224E+04   -0.81254E-06   -0.34470E-08  4128   0.141E-04    0.109E-04
DAV:  15    -0.137898336263E+04   -0.39215E-06   -0.10919E-08  3648   0.866E-05    0.648E-05
DAV:  16    -0.137898336297E+04   -0.34255E-06   -0.13577E-08  3808   0.860E-05    0.504E-05
DAV:  17    -0.137898336309E+04   -0.12144E-06   -0.23332E-09  3072   0.634E-05    0.267E-05
DAV:  18    -0.137898336316E+04   -0.70853E-07   -0.17814E-09  3072   0.575E-05    0.328E-05
DAV:  19    -0.137898336320E+04   -0.36380E-07   -0.51346E-10  3072   0.440E-05    0.248E-05
DAV:  20    -0.137898336322E+04   -0.22133E-07   -0.94983E-11  3072   0.354E-05    0.112E-05
DAV:  21    -0.137898336324E+04   -0.18568E-07    0.15291E-10  3072   0.320E-05    0.158E-05
DAV:  22    -0.137898336325E+04   -0.53260E-08    0.55094E-10  3008   0.193E-05
  10 F= -.13983703E+04 E0= -.13983703E+04  d E =-.945624E-03  mag=     0.0000
       N       E                     dE             d eps       ncg     rms          rms(c)
DAV:   1    -0.137898325494E+04    0.10830E-03   -0.61050E-01  5120   0.779E-01    0.148E-01
DAV:   2    -0.137898379751E+04   -0.54258E-03   -0.76730E-03  5696   0.798E-02    0.102E-01
DAV:   3    -0.137898369942E+04    0.98091E-04   -0.88483E-04  6240   0.415E-02    0.596E-02
DAV:   4    -0.137898369150E+04    0.79220E-05   -0.22208E-04  5888   0.205E-02    0.211E-02
DAV:   5    -0.137898368633E+04    0.51727E-05   -0.56540E-05  5472   0.121E-02    0.958E-03
DAV:   6    -0.137898368571E+04    0.61822E-06   -0.12078E-05  6304   0.505E-03    0.462E-03
DAV:   7    -0.137898368596E+04   -0.24735E-06   -0.28617E-06  6496   0.267E-03    0.232E-03
DAV:   8    -0.137898368652E+04   -0.56850E-06   -0.38186E-07  6048   0.128E-03    0.134E-03
DAV:   9    -0.137898368773E+04   -0.12099E-05   -0.41745E-07  5760   0.149E-03    0.749E-04
DAV:  10    -0.137898368885E+04   -0.11187E-05   -0.28680E-07  5280   0.932E-04    0.781E-04
DAV:  11    -0.137898369005E+04   -0.11995E-05   -0.14198E-07  5408   0.640E-04    0.349E-04
DAV:  12    -0.137898369115E+04   -0.10942E-05   -0.98007E-08  4672   0.593E-04    0.314E-04
DAV:  13    -0.137898369169E+04   -0.54756E-06   -0.54144E-08  4608   0.291E-04    0.238E-04
DAV:  14    -0.137898369205E+04   -0.35981E-06   -0.97710E-09  3456   0.128E-04    0.124E-04
DAV:  15    -0.137898369262E+04   -0.56175E-06   -0.23716E-08  4096   0.122E-04    0.131E-04
DAV:  16    -0.137898369282E+04   -0.20374E-06   -0.37717E-09  3168   0.800E-05    0.643E-05
DAV:  17    -0.137898369301E+04   -0.19040E-06   -0.57063E-09  3360   0.771E-05    0.548E-05
DAV:  18    -0.137898369310E+04   -0.91037E-07   -0.14841E-09  3072   0.541E-05    0.328E-05
DAV:  19    -0.137898369316E+04   -0.57611E-07   -0.20983E-09  3072   0.577E-05    0.332E-05
DAV:  20    -0.137898369317E+04   -0.13519E-07   -0.38081E-10  3136   0.477E-05    0.244E-05
DAV:  21    -0.137898369318E+04   -0.10928E-07   -0.15525E-10  3072   0.383E-05    0.126E-05
DAV:  22    -0.137898369319E+04   -0.44238E-08    0.50396E-10  3072   0.248E-05
  11 F= -.13983703E+04 E0= -.13983703E+04  d E =0.794711E-05  mag=    -0.0000
       N       E                     dE             d eps       ncg     rms          rms(c)
DAV:   1    -0.137898288417E+04    0.80901E-03   -0.61897E-02  5136   0.141E-01    0.773E-02
DAV:   2    -0.137898292587E+04   -0.41699E-04   -0.44943E-04  5440   0.185E-02    0.446E-02
DAV:   3    -0.137898295165E+04   -0.25773E-04   -0.61054E-05  5696   0.823E-03    0.133E-02
DAV:   4    -0.137898295279E+04   -0.11456E-05   -0.25912E-05  6368   0.621E-03    0.562E-03
DAV:   5    -0.137898295248E+04    0.31362E-06   -0.35515E-06  6368   0.220E-03    0.209E-03
DAV:   6    -0.137898295307E+04   -0.59482E-06   -0.98453E-07  5056   0.106E-03    0.125E-03
DAV:   7    -0.137898295349E+04   -0.41595E-06   -0.15966E-07  5472   0.579E-04    0.527E-04
DAV:   8    -0.137898295395E+04   -0.45924E-06   -0.67276E-08  4832   0.308E-04    0.277E-04
DAV:   9    -0.137898295446E+04   -0.50671E-06   -0.30163E-08  4064   0.194E-04    0.160E-04
DAV:  10    -0.137898295491E+04   -0.45190E-06   -0.26251E-08  4160   0.154E-04    0.114E-04
DAV:  11    -0.137898295520E+04   -0.29393E-06   -0.12433E-08  3552   0.106E-04    0.701E-05
DAV:  12    -0.137898295543E+04   -0.23295E-06   -0.11239E-08  3568   0.942E-05    0.661E-05
DAV:  13    -0.137898295555E+04   -0.11566E-06   -0.41067E-09  3168   0.774E-05    0.496E-05
DAV:  14    -0.137898295566E+04   -0.10816E-06   -0.69675E-09  3488   0.976E-05    0.317E-05
DAV:  15    -0.137898295568E+04   -0.22250E-07   -0.19795E-09  2944   0.829E-05    0.286E-05
DAV:  16    -0.137898295571E+04   -0.28784E-07   -0.86834E-10  3072   0.544E-05    0.177E-05
DAV:  17    -0.137898295573E+04   -0.23778E-07   -0.17110E-10  3072   0.368E-05    0.215E-05
DAV:  18    -0.137898295574E+04   -0.50641E-08    0.40630E-10  2944   0.205E-05
  12 F= -.13983696E+04 E0= -.13983696E+04  d E =0.708371E-03  mag=    -0.0000
       N       E                     dE             d eps       ncg     rms          rms(c)
DAV:   1    -0.137898330732E+04   -0.35158E-03   -0.61220E-02  5088   0.141E-01    0.700E-02
DAV:   2    -0.137898336585E+04   -0.58531E-04   -0.37350E-04  5408   0.164E-02    0.424E-02
DAV:   3    -0.137898339854E+04   -0.32693E-04   -0.37527E-05  5888   0.729E-03    0.762E-03
DAV:   4    -0.137898339921E+04   -0.66600E-06   -0.48453E-06  6432   0.303E-03    0.258E-03
DAV:   5    -0.137898339951E+04   -0.30841E-06   -0.63625E-07  5760   0.109E-03    0.143E-03
DAV:   6    -0.137898339982E+04   -0.30149E-06   -0.18335E-07  5760   0.644E-04    0.773E-04
DAV:   7    -0.137898340020E+04   -0.38813E-06   -0.64106E-08  4512   0.425E-04    0.360E-04
DAV:   8    -0.137898340058E+04   -0.37265E-06   -0.46866E-08  4640   0.312E-04    0.231E-04
DAV:   9    -0.137898340092E+04   -0.34398E-06   -0.15900E-08  3712   0.185E-04    0.132E-04
DAV:  10    -0.137898340128E+04   -0.35916E-06   -0.20999E-08  3968   0.180E-04    0.105E-04
DAV:  11    -0.137898340149E+04   -0.20929E-06   -0.10780E-08  3584   0.141E-04    0.627E-05
DAV:  12    -0.137898340162E+04   -0.13105E-06   -0.57190E-09  3328   0.110E-04    0.453E-05
DAV:  13    -0.137898340172E+04   -0.10098E-06   -0.50430E-09  3328   0.963E-05    0.372E-05
DAV:  14    -0.137898340176E+04   -0.40949E-07   -0.30601E-09  3136   0.975E-05    0.236E-05
DAV:  15    -0.137898340180E+04   -0.37209E-07   -0.17469E-09  3072   0.644E-05    0.202E-05
DAV:  16    -0.137898340182E+04   -0.17506E-07   -0.34565E-10  3072   0.362E-05    0.175E-05
DAV:  17    -0.137898340182E+04   -0.71595E-08    0.13320E-10  3072   0.286E-05
  13 F= -.13983697E+04 E0= -.13983697E+04  d E =-.989800E-04  mag=    -0.0000
       N       E                     dE             d eps       ncg     rms          rms(c)
DAV:   1    -0.137898378458E+04   -0.38276E-03   -0.70756E-02  5120   0.181E-01    0.998E-02
DAV:   2    -0.137898376069E+04    0.23894E-04   -0.10199E-03  5856   0.301E-02    0.541E-02
DAV:   3    -0.137898376841E+04   -0.77254E-05   -0.16016E-04  5408   0.125E-02    0.225E-02
DAV:   4    -0.137898376997E+04   -0.15565E-05   -0.71783E-05  5920   0.102E-02    0.112E-02
DAV:   5    -0.137898376892E+04    0.10499E-05   -0.16980E-05  6400   0.495E-03    0.215E-03
DAV:   6    -0.137898376929E+04   -0.36586E-06   -0.13226E-06  5168   0.118E-03    0.196E-03
DAV:   7    -0.137898376953E+04   -0.24129E-06   -0.40261E-07  5776   0.794E-04    0.515E-04
DAV:   8    -0.137898376988E+04   -0.35194E-06   -0.97868E-08  4640   0.362E-04    0.494E-04
DAV:   9    -0.137898377010E+04   -0.22458E-06   -0.25807E-08  4224   0.219E-04    0.196E-04
DAV:  10    -0.137898377041E+04   -0.30531E-06   -0.20050E-08  4160   0.179E-04    0.159E-04
DAV:  11    -0.137898377065E+04   -0.24328E-06   -0.10275E-08  3648   0.124E-04    0.119E-04
DAV:  12    -0.137898377083E+04   -0.17537E-06   -0.91166E-09  3648   0.106E-04    0.492E-05
DAV:  13    -0.137898377094E+04   -0.10809E-06   -0.28081E-09  3072   0.707E-05    0.356E-05
DAV:  14    -0.137898377102E+04   -0.87690E-07   -0.39099E-09  3264   0.696E-05    0.266E-05
DAV:  15    -0.137898377105E+04   -0.29264E-07   -0.76787E-10  3072   0.607E-05    0.172E-05
DAV:  16    -0.137898377109E+04   -0.38403E-07   -0.62443E-10  3072   0.484E-05    0.152E-05
DAV:  17    -0.137898377111E+04   -0.19136E-07    0.16003E-10  3072   0.335E-05    0.144E-05
DAV:  18    -0.137898377112E+04   -0.10041E-07    0.42791E-10  2944   0.234E-05    0.799E-06
DAV:  19    -0.137898377113E+04   -0.83674E-08    0.50955E-10  3072   0.200E-05
  14 F= -.13983703E+04 E0= -.13983703E+04  d E =-.566757E-03  mag=    -0.0000
       N       E                     dE             d eps       ncg     rms          rms(c)
DAV:   1    -0.137898319569E+04    0.57543E-03   -0.79182E-02  4416   0.170E-01    0.113E-01
DAV:   2    -0.137898309649E+04    0.99203E-04   -0.10165E-03  4992   0.198E-02    0.643E-02
DAV:   3    -0.137898307333E+04    0.23158E-04   -0.46038E-04  5312   0.129E-02    0.199E-02
DAV:   4    -0.137898306465E+04    0.86792E-05   -0.50760E-05  4800   0.465E-03    0.116E-02
DAV:   5    -0.137898306421E+04    0.44471E-06   -0.14664E-05  5536   0.267E-03    0.213E-03
DAV:   6    -0.137898306426E+04   -0.53318E-07   -0.93133E-07  4672   0.735E-04    0.109E-03
DAV:   7    -0.137898306440E+04   -0.14110E-06   -0.19764E-07  4864   0.361E-04    0.574E-04
DAV:   8    -0.137898306455E+04   -0.14735E-06   -0.28865E-08  3808   0.176E-04    0.293E-04
DAV:   9    -0.137898306474E+04   -0.19187E-06   -0.12504E-08  3600   0.112E-04    0.137E-04
DAV:  10    -0.137898306493E+04   -0.18791E-06   -0.95659E-09  3584   0.104E-04    0.960E-05
DAV:  11    -0.137898306513E+04   -0.19575E-06   -0.88929E-09  3376   0.959E-05    0.590E-05
DAV:  12    -0.137898306525E+04   -0.12213E-06   -0.61266E-09  3424   0.830E-05    0.437E-05
DAV:  13    -0.137898306534E+04   -0.90979E-07   -0.36576E-09  3072   0.697E-05    0.326E-05
DAV:  14    -0.137898306539E+04   -0.55632E-07   -0.22169E-09  3072   0.532E-05    0.203E-05
DAV:  15    -0.137898306543E+04   -0.31359E-07   -0.90145E-10  3072   0.439E-05    0.113E-05
DAV:  16    -0.137898306544E+04   -0.15760E-07   -0.17963E-10  3072   0.318E-05    0.135E-05
DAV:  17    -0.137898306545E+04   -0.48894E-08    0.37577E-10  2976   0.196E-05
  15 F= -.13983697E+04 E0= -.13983697E+04  d E =0.620893E-03  mag=    -0.0000
       N       E                     dE             d eps       ncg     rms          rms(c)
DAV:   1    -0.137898322007E+04   -0.15463E-03   -0.72496E-02  4416   0.166E-01    0.766E-02
DAV:   2    -0.137898324172E+04   -0.21654E-04   -0.46580E-04  4896   0.125E-02    0.463E-02
DAV:   3    -0.137898324240E+04   -0.67310E-06   -0.62466E-05  5056   0.520E-03    0.411E-03
DAV:   4    -0.137898324275E+04   -0.35761E-06   -0.69629E-06  4976   0.153E-03    0.280E-03
DAV:   5    -0.137898324271E+04    0.42492E-07   -0.11015E-06  4528   0.786E-04    0.109E-03
DAV:   6    -0.137898324286E+04   -0.14437E-06   -0.16515E-07  4480   0.322E-04    0.525E-04
DAV:   7    -0.137898324304E+04   -0.18215E-06   -0.36336E-08  3776   0.150E-04    0.239E-04
DAV:   8    -0.137898324322E+04   -0.18660E-06   -0.13045E-08  3648   0.928E-05    0.142E-04
DAV:   9    -0.137898324346E+04   -0.23651E-06   -0.12585E-08  3776   0.101E-04    0.800E-05
DAV:  10    -0.137898324364E+04   -0.18420E-06   -0.10792E-08  3584   0.101E-04    0.649E-05
DAV:  11    -0.137898324374E+04   -0.91823E-07   -0.44876E-09  3136   0.938E-05    0.474E-05
DAV:  12    -0.137898324385E+04   -0.10895E-06   -0.74988E-09  3456   0.884E-05    0.391E-05
DAV:  13    -0.137898324387E+04   -0.28202E-07   -0.15413E-09  3072   0.564E-05    0.269E-05
DAV:  14    -0.137898324391E+04   -0.37689E-07   -0.19970E-09  3040   0.555E-05    0.344E-05
DAV:  15    -0.137898324392E+04   -0.44092E-08   -0.24754E-10  3072   0.417E-05
  16 F= -.13983698E+04 E0= -.13983698E+04  d E =-.100399E-03  mag=     0.0000
       N       E                     dE             d eps       ncg     rms          rms(c)
DAV:   1    -0.137898335545E+04   -0.11154E-03   -0.78141E-02  4992   0.197E-01    0.110E-01
DAV:   2    -0.137898328548E+04    0.69971E-04   -0.11464E-03  5184   0.238E-02    0.645E-02
DAV:   3    -0.137898326654E+04    0.18944E-04   -0.46400E-04  5328   0.130E-02    0.224E-02
DAV:   4    -0.137898325618E+04    0.10362E-04   -0.62651E-05  5184   0.511E-03    0.113E-02
DAV:   5    -0.137898325660E+04   -0.42279E-06   -0.99381E-06  5472   0.221E-03    0.272E-03
DAV:   6    -0.137898325656E+04    0.44121E-07   -0.10184E-06  4864   0.806E-04    0.118E-03
DAV:   7    -0.137898325666E+04   -0.10242E-06   -0.18820E-07  5184   0.326E-04    0.503E-04
DAV:   8    -0.137898325679E+04   -0.12809E-06   -0.27319E-08  3872   0.156E-04    0.247E-04
DAV:   9    -0.137898325695E+04   -0.16790E-06   -0.15775E-08  3744   0.120E-04    0.151E-04
DAV:  10    -0.137898325714E+04   -0.18289E-06   -0.12046E-08  3744   0.121E-04    0.855E-05
DAV:  11    -0.137898325729E+04   -0.15687E-06   -0.12853E-08  3840   0.146E-04    0.577E-05
DAV:  12    -0.137898325741E+04   -0.11655E-06   -0.15545E-08  3968   0.193E-04    0.464E-05
DAV:  13    -0.137898325747E+04   -0.61162E-07   -0.78243E-09  3520   0.150E-04    0.313E-05
DAV:  14    -0.137898325753E+04   -0.55181E-07   -0.23329E-09  3104   0.694E-05    0.174E-05
DAV:  15    -0.137898325756E+04   -0.28900E-07   -0.10099E-09  3072   0.532E-05    0.192E-05
DAV:  16    -0.137898325757E+04   -0.12529E-07   -0.18790E-11  3072   0.344E-05    0.117E-05
DAV:  17    -0.137898325758E+04   -0.11772E-07    0.23401E-10  3072   0.263E-05    0.142E-05
DAV:  18    -0.137898325758E+04   -0.40891E-08    0.54738E-10  2944   0.173E-05
  17 F= -.13983698E+04 E0= -.13983698E+04  d E =-.885836E-04  mag=    -0.0000
       N       E                     dE             d eps       ncg     rms          rms(c)
DAV:   1    -0.137898370804E+04   -0.45046E-03   -0.79253E-02  5120   0.200E-01    0.117E-01
DAV:   2    -0.137898358234E+04    0.12570E-03   -0.11506E-03  5248   0.254E-02    0.650E-02
DAV:   3    -0.137898355865E+04    0.23691E-04   -0.31630E-04  5664   0.121E-02    0.208E-02
DAV:   4    -0.137898355406E+04    0.45865E-05   -0.47657E-05  5696   0.543E-03    0.859E-03
DAV:   5    -0.137898355458E+04   -0.52013E-06   -0.56635E-06  5344   0.208E-03    0.266E-03
DAV:   6    -0.137898355456E+04    0.18859E-07   -0.92408E-07  5056   0.861E-04    0.158E-03
DAV:   7    -0.137898355459E+04   -0.31621E-07   -0.26269E-07  5120   0.431E-04    0.546E-04
DAV:   8    -0.137898355469E+04   -0.93074E-07   -0.47681E-08  4256   0.184E-04    0.214E-04
DAV:   9    -0.137898355476E+04   -0.72323E-07   -0.60241E-09  3296   0.862E-05    0.152E-04
DAV:  10    -0.137898355485E+04   -0.89436E-07   -0.50175E-09  3456   0.724E-05    0.972E-05
DAV:  11    -0.137898355491E+04   -0.62559E-07   -0.19497E-09  3136   0.602E-05    0.551E-05
DAV:  12    -0.137898355498E+04   -0.68598E-07   -0.34708E-09  3248   0.631E-05    0.546E-05
DAV:  13    -0.137898355502E+04   -0.37311E-07   -0.17912E-09  3072   0.647E-05    0.390E-05
DAV:  14    -0.137898355505E+04   -0.36496E-07   -0.24545E-09  3072   0.623E-05    0.281E-05
DAV:  15    -0.137898355507E+04   -0.10652E-07   -0.46065E-10  3072   0.417E-05    0.172E-05
DAV:  16    -0.137898355508E+04   -0.11220E-07   -0.17433E-10  3072   0.293E-05    0.204E-05
DAV:  17    -0.137898355508E+04   -0.29686E-08    0.40082E-10  3040   0.231E-05
  18 F= -.13983700E+04 E0= -.13983700E+04  d E =-.145283E-03  mag=     0.0000
       N       E                     dE             d eps       ncg     rms          rms(c)
DAV:   1    -0.137898316023E+04    0.39485E-03   -0.79842E-02  5120   0.201E-01    0.124E-01
DAV:   2    -0.137898301544E+04    0.14479E-03   -0.13929E-03  5248   0.280E-02    0.685E-02
DAV:   3    -0.137898298773E+04    0.27710E-04   -0.37738E-04  5760   0.132E-02    0.242E-02
DAV:   4    -0.137898298064E+04    0.70875E-05   -0.72204E-05  5952   0.644E-03    0.102E-02
DAV:   5    -0.137898298054E+04    0.10668E-06   -0.98559E-06  5600   0.264E-03    0.303E-03
DAV:   6    -0.137898298055E+04   -0.18554E-07   -0.13507E-06  5152   0.110E-03    0.191E-03
DAV:   7    -0.137898298058E+04   -0.22337E-07   -0.40860E-07  5088   0.526E-04    0.654E-04
DAV:   8    -0.137898298070E+04   -0.12138E-06   -0.70223E-08  4576   0.247E-04    0.262E-04
DAV:   9    -0.137898298082E+04   -0.11746E-06   -0.14773E-08  3712   0.151E-04    0.199E-04
DAV:  10    -0.137898298094E+04   -0.12472E-06   -0.77194E-09  3584   0.108E-04    0.124E-04
DAV:  11    -0.137898298105E+04   -0.11449E-06   -0.62115E-09  3424   0.963E-05    0.559E-05
DAV:  12    -0.137898298115E+04   -0.94617E-07   -0.46657E-09  3328   0.853E-05    0.525E-05
DAV:  13    -0.137898298123E+04   -0.76878E-07   -0.50790E-09  3424   0.888E-05    0.353E-05
DAV:  14    -0.137898298127E+04   -0.48531E-07   -0.43557E-09  3328   0.853E-05    0.192E-05
DAV:  15    -0.137898298130E+04   -0.23341E-07   -0.12699E-09  3072   0.489E-05    0.112E-05
DAV:  16    -0.137898298132E+04   -0.25233E-07   -0.28280E-10  3072   0.302E-05    0.852E-06
DAV:  17    -0.137898298133E+04   -0.11365E-07    0.30067E-10  3072   0.254E-05    0.767E-06
DAV:  18    -0.137898298134E+04   -0.60390E-08    0.66793E-10  2912   0.164E-05
  19 F= -.13983695E+04 E0= -.13983695E+04  d E =0.464250E-03  mag=    -0.0000
       N       E                     dE             d eps       ncg     rms          rms(c)
DAV:   1    -0.137898366512E+04   -0.68379E-03   -0.75815E-02  4992   0.200E-01    0.987E-02
DAV:   2    -0.137898362883E+04    0.36300E-04   -0.96406E-04  5184   0.228E-02    0.581E-02
DAV:   3    -0.137898362170E+04    0.71204E-05   -0.29121E-04  5472   0.117E-02    0.196E-02
DAV:   4    -0.137898361452E+04    0.71852E-05   -0.53973E-05  5760   0.534E-03    0.898E-03
DAV:   5    -0.137898361536E+04   -0.84471E-06   -0.50646E-06  4992   0.185E-03    0.282E-03
DAV:   6    -0.137898361535E+04    0.17681E-07   -0.91283E-07  5216   0.831E-04    0.142E-03
DAV:   7    -0.137898361545E+04   -0.10262E-06   -0.27349E-07  5248   0.413E-04    0.514E-04
DAV:   8    -0.137898361561E+04   -0.16527E-06   -0.45687E-08  4160   0.219E-04    0.279E-04
DAV:   9    -0.137898361579E+04   -0.17813E-06   -0.16088E-08  3744   0.169E-04    0.186E-04
DAV:  10    -0.137898361598E+04   -0.19152E-06   -0.13157E-08  3808   0.136E-04    0.117E-04
DAV:  11    -0.137898361613E+04   -0.14628E-06   -0.81992E-09  3520   0.106E-04    0.613E-05
DAV:  12    -0.137898361621E+04   -0.81593E-07   -0.38697E-09  3136   0.824E-05    0.507E-05
DAV:  13    -0.137898361629E+04   -0.77896E-07   -0.60132E-09  3328   0.101E-04    0.311E-05
DAV:  14    -0.137898361632E+04   -0.30021E-07   -0.34717E-09  3104   0.911E-05    0.181E-05
DAV:  15    -0.137898361634E+04   -0.19165E-07   -0.94385E-10  3072   0.492E-05    0.126E-05
DAV:  16    -0.137898361636E+04   -0.17244E-07   -0.30569E-10  3072   0.348E-05    0.101E-05
DAV:  17    -0.137898361636E+04   -0.42055E-08    0.23606E-10  3072   0.214E-05
  20 F= -.13983702E+04 E0= -.13983702E+04  d E =-.665167E-03  mag=    -0.0000
       N       E                     dE             d eps       ncg     rms          rms(c)
DAV:   1    -0.137898305178E+04    0.56457E-03   -0.78519E-02  4416   0.187E-01    0.111E-01
DAV:   2    -0.137898296260E+04    0.89186E-04   -0.95044E-04  4640   0.219E-02    0.648E-02
DAV:   3    -0.137898294555E+04    0.17048E-04   -0.55759E-04  4896   0.154E-02    0.226E-02
DAV:   4    -0.137898293464E+04    0.10907E-04   -0.56770E-05  4640   0.504E-03    0.145E-02
DAV:   5    -0.137898293280E+04    0.18381E-05   -0.24789E-05  4864   0.328E-03    0.264E-03
DAV:   6    -0.137898293285E+04   -0.47075E-07   -0.17578E-06  4928   0.101E-03    0.112E-03
DAV:   7    -0.137898293291E+04   -0.60099E-07   -0.25096E-07  4800   0.356E-04    0.900E-04
DAV:   8    -0.137898293302E+04   -0.10701E-06   -0.64202E-08  4064   0.269E-04    0.264E-04
DAV:   9    -0.137898293311E+04   -0.96363E-07   -0.29474E-08  4096   0.190E-04    0.227E-04
DAV:  10    -0.137898293322E+04   -0.10408E-06   -0.74812E-09  3424   0.115E-04    0.871E-05
DAV:  11    -0.137898293331E+04   -0.91663E-07   -0.60548E-09  3328   0.113E-04    0.629E-05
DAV:  12    -0.137898293338E+04   -0.72279E-07   -0.55115E-09  3280   0.116E-04    0.386E-05
DAV:  13    -0.137898293343E+04   -0.49680E-07   -0.50760E-09  3184   0.113E-04    0.312E-05
DAV:  14    -0.137898293346E+04   -0.27649E-07   -0.23516E-09  3072   0.789E-05    0.211E-05
DAV:  15    -0.137898293349E+04   -0.25044E-07   -0.12519E-09  3072   0.531E-05    0.135E-05
DAV:  16    -0.137898293350E+04   -0.11700E-07   -0.28513E-10  3072   0.341E-05    0.120E-05
DAV:  17    -0.137898293351E+04   -0.98953E-08    0.29142E-10  2944   0.230E-05
  21 F= -.13983695E+04 E0= -.13983695E+04  d E =0.666384E-03  mag=    -0.0000
       N       E                     dE             d eps       ncg     rms          rms(c)
DAV:   1    -0.137898306824E+04   -0.13474E-03   -0.72869E-02  4608   0.181E-01    0.787E-02
DAV:   2    -0.137898309279E+04   -0.24559E-04   -0.50755E-04  4800   0.139E-02    0.479E-02
DAV:   3    -0.137898309156E+04    0.12317E-05   -0.76879E-05  4800   0.599E-03    0.517E-03
DAV:   4    -0.137898309180E+04   -0.23245E-06   -0.87298E-06  4512   0.187E-03    0.333E-03
DAV:   5    -0.137898309183E+04   -0.37049E-07   -0.22455E-06  4704   0.112E-03    0.115E-03
DAV:   6    -0.137898309205E+04   -0.21908E-06   -0.28773E-07  4576   0.411E-04    0.650E-04
DAV:   7    -0.137898309243E+04   -0.37662E-06   -0.75995E-08  4064   0.212E-04    0.234E-04
DAV:   8    -0.137898309268E+04   -0.24858E-06   -0.14736E-08  3680   0.100E-04    0.176E-04
DAV:   9    -0.137898309311E+04   -0.43458E-06   -0.24499E-08  3920   0.121E-04    0.966E-05
DAV:  10    -0.137898309338E+04   -0.26588E-06   -0.13097E-08  3760   0.109E-04    0.663E-05
DAV:  11    -0.137898309354E+04   -0.15926E-06   -0.66148E-09  3264   0.107E-04    0.491E-05
DAV:  12    -0.137898309367E+04   -0.12982E-06   -0.89566E-09  3664   0.131E-04    0.334E-05
DAV:  13    -0.137898309374E+04   -0.76820E-07   -0.46827E-09  3136   0.106E-04    0.201E-05
DAV:  14    -0.137898309379E+04   -0.44980E-07   -0.17699E-09  3072   0.541E-05    0.151E-05
DAV:  15    -0.137898309380E+04   -0.16633E-07   -0.34344E-10  3072   0.399E-05    0.920E-06
DAV:  16    -0.137898309381E+04   -0.93569E-08    0.25742E-10  3072   0.247E-05
  22 F= -.13983695E+04 E0= -.13983695E+04  d E =0.556420E-04  mag=     0.0000
       N       E                     dE             d eps       ncg     rms          rms(c)
DAV:   1    -0.137898367926E+04   -0.58545E-03   -0.74046E-02  5120   0.190E-01    0.930E-02
DAV:   2    -0.137898366493E+04    0.14332E-04   -0.89679E-04  5408   0.205E-02    0.571E-02
DAV:   3    -0.137898364794E+04    0.16988E-04   -0.34198E-04  5376   0.131E-02    0.179E-02
DAV:   4    -0.137898364253E+04    0.54106E-05   -0.43702E-05  5152   0.456E-03    0.107E-02
DAV:   5    -0.137898364177E+04    0.76319E-06   -0.16182E-05  4736   0.255E-03    0.192E-03
DAV:   6    -0.137898364200E+04   -0.23452E-06   -0.92034E-07  4544   0.684E-04    0.105E-03
DAV:   7    -0.137898364230E+04   -0.29767E-06   -0.13275E-07  4480   0.276E-04    0.431E-04
DAV:   8    -0.137898364265E+04   -0.35635E-06   -0.41647E-08  4000   0.170E-04    0.277E-04
DAV:   9    -0.137898364307E+04   -0.41845E-06   -0.20575E-08  3936   0.143E-04    0.144E-04
DAV:  10    -0.137898364345E+04   -0.37714E-06   -0.20878E-08  3936   0.130E-04    0.105E-04
DAV:  11    -0.137898364373E+04   -0.27640E-06   -0.11538E-08  3648   0.912E-05    0.932E-05
DAV:  12    -0.137898364395E+04   -0.22212E-06   -0.10416E-08  3712   0.817E-05    0.350E-05
DAV:  13    -0.137898364405E+04   -0.98473E-07   -0.37644E-09  3104   0.757E-05    0.314E-05
DAV:  14    -0.137898364410E+04   -0.53959E-07   -0.23165E-09  3072   0.689E-05    0.247E-05
DAV:  15    -0.137898364414E+04   -0.38272E-07   -0.11812E-09  3072   0.489E-05    0.122E-05
DAV:  16    -0.137898364416E+04   -0.21013E-07   -0.21212E-10  3072   0.295E-05    0.922E-06
DAV:  17    -0.137898364417E+04   -0.85274E-08    0.29073E-10  3072   0.215E-05
  23 F= -.13983702E+04 E0= -.13983702E+04  d E =-.728875E-03  mag=    -0.0000
       N       E                     dE             d eps       ncg     rms          rms(c)
DAV:   1    -0.137898328720E+04    0.35696E-03   -0.73634E-02  5120   0.180E-01    0.930E-02
DAV:   2    -0.137898325427E+04    0.32934E-04   -0.64571E-04  5376   0.193E-02    0.531E-02
DAV:   3    -0.137898324659E+04    0.76755E-05   -0.18466E-04  5600   0.919E-03    0.150E-02
DAV:   4    -0.137898324339E+04    0.32068E-05   -0.27401E-05  5856   0.421E-03    0.627E-03
DAV:   5    -0.137898324378E+04   -0.39492E-06   -0.28130E-06  5152   0.146E-03    0.221E-03
DAV:   6    -0.137898324379E+04   -0.44674E-08   -0.51026E-07  5088   0.607E-04    0.101E-03
DAV:   7    -0.137898324381E+04   -0.19616E-07   -0.98691E-08  5056   0.293E-04    0.368E-04
DAV:   8    -0.137898324386E+04   -0.54351E-07   -0.20589E-08  3840   0.148E-04    0.168E-04
DAV:   9    -0.137898324391E+04   -0.52692E-07   -0.38940E-09  3200   0.836E-05    0.100E-04
DAV:  10    -0.137898324400E+04   -0.84212E-07   -0.50494E-09  3360   0.906E-05    0.588E-05
DAV:  11    -0.137898324406E+04   -0.63272E-07   -0.28060E-09  3072   0.679E-05    0.391E-05
DAV:  12    -0.137898324413E+04   -0.67521E-07   -0.28846E-09  3072   0.652E-05    0.297E-05
DAV:  13    -0.137898324416E+04   -0.32247E-07   -0.12984E-09  3072   0.507E-05    0.250E-05
DAV:  14    -0.137898324419E+04   -0.32931E-07   -0.11387E-09  3072   0.499E-05    0.154E-05
DAV:  15    -0.137898324421E+04   -0.13635E-07   -0.37309E-10  3072   0.378E-05    0.159E-05
DAV:  16    -0.137898324421E+04   -0.63737E-08    0.43998E-10  2944   0.212E-05
  24 F= -.13983698E+04 E0= -.13983698E+04  d E =0.360836E-03  mag=     0.0000
       N       E                     dE             d eps       ncg     rms          rms(c)
DAV:   1    -0.137898315913E+04    0.85083E-04   -0.70129E-02  5120   0.177E-01    0.858E-02
DAV:   2    -0.137898313446E+04    0.24662E-04   -0.69679E-04  5600   0.189E-02    0.484E-02
DAV:   3    -0.137898312973E+04    0.47324E-05   -0.10752E-04  5888   0.765E-03    0.148E-02
DAV:   4    -0.137898312921E+04    0.52289E-06   -0.16525E-05  6016   0.288E-03    0.406E-03
DAV:   5    -0.137898312908E+04    0.12392E-06   -0.17342E-06  5216   0.119E-03    0.153E-03
DAV:   6    -0.137898312913E+04   -0.48080E-07   -0.40617E-07  5536   0.514E-04    0.960E-04
DAV:   7    -0.137898312924E+04   -0.10466E-06   -0.12306E-07  4704   0.304E-04    0.353E-04
DAV:   8    -0.137898312943E+04   -0.19297E-06   -0.23162E-08  3776   0.177E-04    0.250E-04
DAV:   9    -0.137898312970E+04   -0.27048E-06   -0.21272E-08  4000   0.183E-04    0.128E-04
DAV:  10    -0.137898312994E+04   -0.24366E-06   -0.18081E-08  3968   0.151E-04    0.840E-05
DAV:  11    -0.137898313010E+04   -0.16051E-06   -0.78903E-09  3536   0.105E-04    0.671E-05
DAV:  12    -0.137898313023E+04   -0.12601E-06   -0.71220E-09  3440   0.105E-04    0.348E-05
DAV:  13    -0.137898313030E+04   -0.66371E-07   -0.41960E-09  3104   0.908E-05    0.247E-05
DAV:  14    -0.137898313033E+04   -0.34444E-07   -0.16715E-09  3072   0.592E-05    0.155E-05
DAV:  15    -0.137898313037E+04   -0.41255E-07   -0.11210E-09  3072   0.418E-05    0.135E-05
DAV:  16    -0.137898313038E+04   -0.10812E-07    0.62326E-11  3072   0.260E-05    0.108E-05
DAV:  17    -0.137898313039E+04   -0.11365E-07    0.30925E-10  3072   0.231E-05    0.887E-06
DAV:  18    -0.137898313040E+04   -0.22410E-08    0.57182E-10  3072   0.155E-05
  25 F= -.13983695E+04 E0= -.13983695E+04  d E =0.297298E-03  mag=     0.0000
       N       E                     dE             d eps       ncg     rms          rms(c)
DAV:   1    -0.137898261388E+04    0.51652E-03   -0.82525E-02  5120   0.203E-01    0.133E-01
DAV:   2    -0.137898243875E+04    0.17513E-03   -0.18867E-03  5472   0.346E-02    0.777E-02
DAV:   3    -0.137898239722E+04    0.41530E-04   -0.89114E-04  5568   0.199E-02    0.294E-02
DAV:   4    -0.137898238100E+04    0.16213E-04   -0.12353E-04  5568   0.751E-03    0.169E-02
DAV:   5    -0.137898238137E+04   -0.36237E-06   -0.17748E-05  5312   0.305E-03    0.428E-03
DAV:   6    -0.137898238118E+04    0.19053E-06   -0.26257E-06  4832   0.132E-03    0.164E-03
DAV:   7    -0.137898238134E+04   -0.16401E-06   -0.55988E-07  5632   0.567E-04    0.717E-04
DAV:   8    -0.137898238151E+04   -0.17365E-06   -0.43547E-08  3904   0.178E-04    0.374E-04
DAV:   9    -0.137898238179E+04   -0.27171E-06   -0.21741E-08  3936   0.165E-04    0.178E-04
DAV:  10    -0.137898238209E+04   -0.30085E-06   -0.22206E-08  3840   0.161E-04    0.136E-04
DAV:  11    -0.137898238232E+04   -0.23036E-06   -0.10322E-08  3520   0.107E-04    0.944E-05
DAV:  12    -0.137898238253E+04   -0.21799E-06   -0.11256E-08  3744   0.931E-05    0.734E-05
DAV:  13    -0.137898238265E+04   -0.11770E-06   -0.46797E-09  3232   0.816E-05    0.451E-05
DAV:  14    -0.137898238274E+04   -0.88694E-07   -0.44801E-09  3168   0.881E-05    0.357E-05
DAV:  15    -0.137898238277E+04   -0.31068E-07   -0.25704E-09  3072   0.855E-05    0.315E-05
DAV:  16    -0.137898238279E+04   -0.20067E-07   -0.77608E-10  3072   0.537E-05    0.114E-05
DAV:  17    -0.137898238281E+04   -0.13111E-07   -0.51942E-11  3072   0.327E-05    0.190E-05
DAV:  18    -0.137898238281E+04   -0.30414E-08    0.53304E-10  2944   0.202E-05
  26 F= -.13983689E+04 E0= -.13983689E+04  d E =0.658130E-03  mag=    -0.0000
       N       E                     dE             d eps       ncg     rms          rms(c)
DAV:   1    -0.137898384113E+04   -0.14583E-02   -0.79310E-02  4352   0.183E-01    0.113E-01
DAV:   2    -0.137898374997E+04    0.91157E-04   -0.10977E-03  4544   0.225E-02    0.677E-02
DAV:   3    -0.137898372683E+04    0.23138E-04   -0.70566E-04  4672   0.172E-02    0.258E-02
DAV:   4    -0.137898371229E+04    0.14543E-04   -0.73411E-05  4480   0.559E-03    0.165E-02
DAV:   5    -0.137898371009E+04    0.22020E-05   -0.32708E-05  4544   0.356E-03    0.307E-03
DAV:   6    -0.137898371059E+04   -0.50086E-06   -0.23230E-06  4896   0.106E-03    0.119E-03
DAV:   7    -0.137898371123E+04   -0.64082E-06   -0.34577E-07  4976   0.386E-04    0.101E-03
DAV:   8    -0.137898371209E+04   -0.85714E-06   -0.12464E-07  4224   0.291E-04    0.291E-04
DAV:   9    -0.137898371271E+04   -0.62534E-06   -0.54651E-08  4416   0.177E-04    0.316E-04
DAV:  10    -0.137898371345E+04   -0.74024E-06   -0.39890E-08  4096   0.159E-04    0.109E-04
DAV:  11    -0.137898371385E+04   -0.40306E-06   -0.16296E-08  3872   0.118E-04    0.115E-04
DAV:  12    -0.137898371420E+04   -0.34117E-06   -0.15730E-08  3968   0.125E-04    0.559E-05
DAV:  13    -0.137898371437E+04   -0.17608E-06   -0.69562E-09  3456   0.114E-04    0.591E-05
DAV:  14    -0.137898371449E+04   -0.12065E-06   -0.39062E-09  3136   0.862E-05    0.280E-05
DAV:  15    -0.137898371460E+04   -0.10432E-06   -0.44915E-09  3232   0.778E-05    0.300E-05
DAV:  16    -0.137898371463E+04   -0.28842E-07   -0.79624E-10  3072   0.464E-05    0.186E-05
DAV:  17    -0.137898371465E+04   -0.27954E-07   -0.18816E-10  3072   0.342E-05    0.159E-05
DAV:  18    -0.137898371467E+04   -0.18219E-07    0.26737E-10  3072   0.248E-05    0.157E-05
DAV:  19    -0.137898371468E+04   -0.49768E-08    0.52199E-10  2944   0.153E-05
  27 F= -.13983702E+04 E0= -.13983702E+04  d E =-.137181E-02  mag=    -0.0000
       N       E                     dE             d eps       ncg     rms          rms(c)
DAV:   1    -0.137898349730E+04    0.21737E-03   -0.72714E-02  4352   0.177E-01    0.796E-02
DAV:   2    -0.137898351225E+04   -0.14952E-04   -0.52824E-04  4608   0.137E-02    0.481E-02
DAV:   3    -0.137898351393E+04   -0.16774E-05   -0.10448E-04  5088   0.688E-03    0.773E-03
DAV:   4    -0.137898351311E+04    0.81559E-06   -0.11031E-05  4864   0.230E-03    0.470E-03
DAV:   5    -0.137898351322E+04   -0.10617E-06   -0.54898E-06  4576   0.171E-03    0.137E-03
DAV:   6    -0.137898351352E+04   -0.29679E-06   -0.58209E-07  4352   0.578E-04    0.841E-04
DAV:   7    -0.137898351398E+04   -0.46326E-06   -0.88591E-08  4224   0.250E-04    0.359E-04
DAV:   8    -0.137898351447E+04   -0.48919E-06   -0.37842E-08  4064   0.173E-04    0.211E-04
DAV:   9    -0.137898351499E+04   -0.52420E-06   -0.25596E-08  3904   0.155E-04    0.125E-04
DAV:  10    -0.137898351538E+04   -0.38149E-06   -0.17698E-08  3744   0.126E-04    0.674E-05
DAV:  11    -0.137898351555E+04   -0.17397E-06   -0.50011E-09  3232   0.813E-05    0.513E-05
DAV:  12    -0.137898351571E+04   -0.15869E-06   -0.54920E-09  3280   0.903E-05    0.300E-05
DAV:  13    -0.137898351580E+04   -0.95286E-07   -0.41585E-09  3136   0.890E-05    0.208E-05
DAV:  14    -0.137898351584E+04   -0.37966E-07   -0.13596E-09  3072   0.504E-05    0.153E-05
DAV:  15    -0.137898351587E+04   -0.27867E-07   -0.69975E-10  3072   0.346E-05    0.918E-06
DAV:  16    -0.137898351588E+04   -0.77562E-08    0.13873E-10  3072   0.239E-05
  28 F= -.13983700E+04 E0= -.13983700E+04  d E =0.269423E-03  mag=    -0.0000
       N       E                     dE             d eps       ncg     rms          rms(c)
DAV:   1    -0.137898319950E+04    0.31637E-03   -0.73280E-02  4352   0.196E-01    0.838E-02
DAV:   2    -0.137898320761E+04   -0.81092E-05   -0.65938E-04  4384   0.165E-02    0.520E-02
DAV:   3    -0.137898319683E+04    0.10781E-04   -0.15710E-04  4672   0.860E-03    0.954E-03
DAV:   4    -0.137898319670E+04    0.13033E-06   -0.16965E-05  4416   0.251E-03    0.655E-03
DAV:   5    -0.137898319718E+04   -0.48229E-06   -0.71169E-06  4384   0.166E-03    0.177E-03
DAV:   6    -0.137898319784E+04   -0.65260E-06   -0.54745E-07  4320   0.534E-04    0.105E-03
DAV:   7    -0.137898319918E+04   -0.13413E-05   -0.24421E-07  4224   0.350E-04    0.399E-04
DAV:   8    -0.137898319999E+04   -0.81465E-06   -0.62761E-08  4320   0.178E-04    0.290E-04
DAV:   9    -0.137898320097E+04   -0.97757E-06   -0.37536E-08  4128   0.129E-04    0.152E-04
DAV:  10    -0.137898320196E+04   -0.98668E-06   -0.56829E-08  4320   0.140E-04    0.883E-05
DAV:  11    -0.137898320234E+04   -0.38574E-06   -0.11035E-08  3648   0.949E-05    0.680E-05
DAV:  12    -0.137898320276E+04   -0.41486E-06   -0.17157E-08  4032   0.103E-04    0.400E-05
DAV:  13    -0.137898320294E+04   -0.18286E-06   -0.42493E-09  3232   0.807E-05    0.277E-05
DAV:  14    -0.137898320304E+04   -0.10233E-06   -0.21889E-09  3072   0.648E-05    0.197E-05
DAV:  15    -0.137898320312E+04   -0.79934E-07   -0.16013E-09  3040   0.544E-05    0.178E-05
DAV:  16    -0.137898320315E+04   -0.26921E-07   -0.24453E-10  3040   0.399E-05    0.106E-05
DAV:  17    -0.137898320316E+04   -0.10972E-07    0.14423E-10  3040   0.318E-05    0.762E-06
DAV:  18    -0.137898320316E+04   -0.40018E-08    0.55305E-10  3072   0.164E-05
  29 F= -.13983699E+04 E0= -.13983699E+04  d E =0.119721E-03  mag=     0.0000
       N       E                     dE             d eps       ncg     rms          rms(c)
DAV:   1    -0.137898353813E+04   -0.33497E-03   -0.76058E-02  4480   0.182E-01    0.981E-02
DAV:   2    -0.137898350063E+04    0.37500E-04   -0.79364E-04  4352   0.183E-02    0.584E-02
DAV:   3    -0.137898349029E+04    0.10344E-04   -0.40002E-04  4576   0.131E-02    0.192E-02
DAV:   4    -0.137898348257E+04    0.77227E-05   -0.39180E-05  4416   0.432E-03    0.126E-02
DAV:   5    -0.137898348100E+04    0.15653E-05   -0.21585E-05  4448   0.299E-03    0.215E-03
DAV:   6    -0.137898348138E+04   -0.37566E-06   -0.12932E-06  4608   0.827E-04    0.107E-03
DAV:   7    -0.137898348180E+04   -0.41853E-06   -0.24259E-07  4672   0.320E-04    0.818E-04
DAV:   8    -0.137898348231E+04   -0.51685E-06   -0.77089E-08  3872   0.206E-04    0.254E-04
DAV:   9    -0.137898348278E+04   -0.47195E-06   -0.36295E-08  3904   0.129E-04    0.242E-04
DAV:  10    -0.137898348332E+04   -0.53209E-06   -0.23055E-08  3872   0.113E-04    0.896E-05
DAV:  11    -0.137898348359E+04   -0.27051E-06   -0.94181E-09  3520   0.853E-05    0.845E-05
DAV:  12    -0.137898348381E+04   -0.22014E-06   -0.76105E-09  3520   0.886E-05    0.463E-05
DAV:  13    -0.137898348393E+04   -0.12509E-06   -0.51624E-09  3264   0.891E-05    0.393E-05
DAV:  14    -0.137898348399E+04   -0.56738E-07   -0.26033E-09  3072   0.758E-05    0.203E-05
DAV:  15    -0.137898348403E+04   -0.37908E-07   -0.19266E-09  3072   0.604E-05    0.227E-05
DAV:  16    -0.137898348404E+04   -0.87311E-08   -0.21619E-10  3072   0.365E-05
  30 F= -.13983700E+04 E0= -.13983700E+04  d E =-.186391E-03  mag=    -0.0000
       N       E                     dE             d eps       ncg     rms          rms(c)
DAV:   1    -0.137898278372E+04    0.70031E-03   -0.79710E-02  4480   0.185E-01    0.118E-01
DAV:   2    -0.137898267298E+04    0.11074E-03   -0.12130E-03  4544   0.244E-02    0.672E-02
DAV:   3    -0.137898264691E+04    0.26071E-04   -0.64259E-04  4864   0.164E-02    0.244E-02
DAV:   4    -0.137898263525E+04    0.11659E-04   -0.60768E-05  4512   0.520E-03    0.160E-02
DAV:   5    -0.137898263347E+04    0.17802E-05   -0.26931E-05  4768   0.338E-03    0.285E-03
DAV:   6    -0.137898263356E+04   -0.88941E-07   -0.21482E-06  4768   0.104E-03    0.118E-03
DAV:   7    -0.137898263373E+04   -0.16630E-06   -0.26906E-07  4928   0.356E-04    0.937E-04
DAV:   8    -0.137898263387E+04   -0.13827E-06   -0.62283E-08  3936   0.225E-04    0.251E-04
DAV:   9    -0.137898263399E+04   -0.12972E-06   -0.24469E-08  3680   0.164E-04    0.210E-04
DAV:  10    -0.137898263411E+04   -0.11903E-06   -0.12421E-08  3616   0.181E-04    0.755E-05
DAV:  11    -0.137898263421E+04   -0.98167E-07   -0.15432E-08  3936   0.208E-04    0.723E-05
DAV:  12    -0.137898263428E+04   -0.63519E-07   -0.92692E-09  3520   0.176E-04    0.396E-05
DAV:  13    -0.137898263435E+04   -0.73996E-07   -0.58166E-09  3296   0.117E-04    0.314E-05
DAV:  14    -0.137898263439E+04   -0.36118E-07   -0.15820E-09  3072   0.722E-05    0.202E-05
DAV:  15    -0.137898263442E+04   -0.39305E-07   -0.12722E-09  3008   0.509E-05    0.168E-05
DAV:  16    -0.137898263443E+04   -0.72760E-08   -0.14410E-11  3072   0.346E-05
  31 F= -.13983692E+04 E0= -.13983692E+04  d E =0.859370E-03  mag=    -0.0000
       N       E                     dE             d eps       ncg     rms          rms(c)
DAV:   1    -0.137898382857E+04   -0.11941E-02   -0.77085E-02  4928   0.183E-01    0.104E-01
DAV:   2    -0.137898379355E+04    0.35015E-04   -0.11158E-03  5088   0.229E-02    0.628E-02
DAV:   3    -0.137898377867E+04    0.14889E-04   -0.53538E-04  5184   0.156E-02    0.221E-02
DAV:   4    -0.137898376849E+04    0.10174E-04   -0.60361E-05  4928   0.507E-03    0.142E-02
DAV:   5    -0.137898376680E+04    0.16886E-05   -0.25355E-05  4864   0.316E-03    0.261E-03
DAV:   6    -0.137898376701E+04   -0.20930E-06   -0.13853E-06  4608   0.835E-04    0.116E-03
DAV:   7    -0.137898376720E+04   -0.19037E-06   -0.32557E-07  4624   0.403E-04    0.748E-04
DAV:   8    -0.137898376747E+04   -0.26474E-06   -0.63059E-08  4016   0.233E-04    0.283E-04
DAV:   9    -0.137898376774E+04   -0.27326E-06   -0.34739E-08  4032   0.176E-04    0.194E-04
DAV:  10    -0.137898376805E+04   -0.30524E-06   -0.19834E-08  4000   0.172E-04    0.981E-05
DAV:  11    -0.137898376822E+04   -0.17865E-06   -0.17316E-08  4064   0.205E-04    0.594E-05
DAV:  12    -0.137898376838E+04   -0.15779E-06   -0.19569E-08  4096   0.229E-04    0.486E-05
DAV:  13    -0.137898376847E+04   -0.85493E-07   -0.11447E-08  3840   0.184E-04    0.349E-05
DAV:  14    -0.137898376854E+04   -0.75830E-07   -0.44678E-09  3328   0.106E-04    0.201E-05
DAV:  15    -0.137898376857E+04   -0.28755E-07   -0.12323E-09  3072   0.638E-05    0.181E-05
DAV:  16    -0.137898376859E+04   -0.15716E-07    0.90840E-11  3040   0.342E-05    0.125E-05
DAV:  17    -0.137898376860E+04   -0.11962E-07    0.13424E-10  3072   0.283E-05    0.128E-05
DAV:  18    -0.137898376860E+04   -0.21537E-08    0.50466E-10  2944   0.186E-05
  32 F= -.13983703E+04 E0= -.13983703E+04  d E =-.113398E-02  mag=    -0.0000
       N       E                     dE             d eps       ncg     rms          rms(c)
DAV:   1    -0.137898326926E+04    0.49934E-03   -0.73516E-02  5024   0.150E-01    0.921E-02
DAV:   2    -0.137898324445E+04    0.24812E-04   -0.58925E-04  5376   0.147E-02    0.542E-02
DAV:   3    -0.137898324171E+04    0.27441E-05   -0.15183E-04  5600   0.804E-03    0.120E-02
DAV:   4    -0.137898323934E+04    0.23652E-05   -0.20262E-05  5280   0.313E-03    0.573E-03
DAV:   5    -0.137898323976E+04   -0.41867E-06   -0.33442E-06  5504   0.123E-03    0.163E-03
DAV:   6    -0.137898324005E+04   -0.28544E-06   -0.23547E-07  4864   0.445E-04    0.912E-04
DAV:   7    -0.137898324044E+04   -0.38960E-06   -0.88770E-08  4320   0.255E-04    0.322E-04
DAV:   8    -0.137898324082E+04   -0.38001E-06   -0.37011E-08  4192   0.159E-04    0.262E-04
DAV:   9    -0.137898324123E+04   -0.41787E-06   -0.15185E-08  3712   0.116E-04    0.114E-04
DAV:  10    -0.137898324163E+04   -0.39260E-06   -0.18128E-08  3968   0.114E-04    0.752E-05
DAV:  11    -0.137898324192E+04   -0.29427E-06   -0.13793E-08  3840   0.124E-04    0.575E-05
DAV:  12    -0.137898324210E+04   -0.17544E-06   -0.10557E-08  3744   0.139E-04    0.307E-05
DAV:  13    -0.137898324218E+04   -0.87326E-07   -0.44438E-09  3168   0.972E-05    0.260E-05
DAV:  14    -0.137898324223E+04   -0.50466E-07   -0.13937E-09  3072   0.526E-05    0.172E-05
DAV:  15    -0.137898324227E+04   -0.36365E-07   -0.78731E-10  3072   0.470E-05    0.968E-06
DAV:  16    -0.137898324228E+04   -0.12020E-07   -0.19271E-11  3072   0.334E-05    0.799E-06
DAV:  17    -0.137898324229E+04   -0.51223E-08    0.38661E-10  3072   0.179E-05
  33 F= -.13983698E+04 E0= -.13983698E+04  d E =0.541063E-03  mag=     0.0000
       N       E                     dE             d eps       ncg     rms          rms(c)
DAV:   1    -0.137898300385E+04    0.23843E-03   -0.84959E-02  5248   0.159E-01    0.143E-01
DAV:   2    -0.137898274757E+04    0.25628E-03   -0.16386E-03  5504   0.283E-02    0.788E-02
DAV:   3    -0.137898270731E+04    0.40260E-04   -0.62318E-04  5728   0.151E-02    0.270E-02
DAV:   4    -0.137898269481E+04    0.12503E-04   -0.98362E-05  5760   0.702E-03    0.133E-02
DAV:   5    -0.137898269553E+04   -0.72632E-06   -0.93147E-06  5184   0.246E-03    0.377E-03
DAV:   6    -0.137898269561E+04   -0.73531E-07   -0.12729E-06  5216   0.936E-04    0.197E-03
DAV:   7    -0.137898269591E+04   -0.30136E-06   -0.60185E-07  4976   0.560E-04    0.494E-04
DAV:   8    -0.137898269621E+04   -0.30090E-06   -0.57594E-08  4352   0.191E-04    0.299E-04
DAV:   9    -0.137898269653E+04   -0.32052E-06   -0.16055E-08  3712   0.122E-04    0.221E-04
DAV:  10    -0.137898269688E+04   -0.35434E-06   -0.17248E-08  3872   0.103E-04    0.113E-04
DAV:  11    -0.137898269711E+04   -0.22369E-06   -0.70981E-09  3360   0.825E-05    0.767E-05
DAV:  12    -0.137898269734E+04   -0.22977E-06   -0.98929E-09  3648   0.777E-05    0.917E-05
DAV:  13    -0.137898269745E+04   -0.11036E-06   -0.30646E-09  3072   0.644E-05    0.554E-05
DAV:  14    -0.137898269757E+04   -0.11700E-06   -0.51950E-09  3168   0.693E-05    0.294E-05
DAV:  15    -0.137898269759E+04   -0.27809E-07   -0.78736E-10  3072   0.444E-05    0.271E-05
DAV:  16    -0.137898269764E+04   -0.45125E-07   -0.66256E-10  3072   0.402E-05    0.150E-05
DAV:  17    -0.137898269766E+04   -0.19238E-07   -0.17366E-11  3072   0.322E-05    0.197E-05
DAV:  18    -0.137898269766E+04   -0.34343E-08    0.63115E-10  3072   0.169E-05
  34 F= -.13983692E+04 E0= -.13983692E+04  d E =0.563321E-03  mag=     0.0000
       N       E                     dE             d eps       ncg     rms          rms(c)
DAV:   1    -0.137898329949E+04   -0.60184E-03   -0.79791E-02  5184   0.183E-01    0.120E-01
DAV:   2    -0.137898319664E+04    0.10285E-03   -0.13226E-03  5248   0.263E-02    0.694E-02
DAV:   3    -0.137898317503E+04    0.21610E-04   -0.60959E-04  5472   0.164E-02    0.245E-02
DAV:   4    -0.137898316126E+04    0.13777E-04   -0.75525E-05  5568   0.644E-03    0.136E-02
DAV:   5    -0.137898316131E+04   -0.50437E-07   -0.17191E-05  6080   0.314E-03    0.292E-03
DAV:   6    -0.137898316128E+04    0.26208E-07   -0.11264E-06  5248   0.913E-04    0.128E-03
DAV:   7    -0.137898316127E+04    0.16589E-07   -0.26905E-07  5296   0.414E-04    0.526E-04
DAV:   8    -0.137898316128E+04   -0.16254E-07   -0.29188E-08  4000   0.188E-04    0.283E-04
DAV:   9    -0.137898316129E+04   -0.83965E-08   -0.45925E-09  3232   0.894E-05
  35 F= -.13983698E+04 E0= -.13983698E+04  d E =-.585600E-03  mag=    -0.0000
       N       E                     dE             d eps       ncg     rms          rms(c)
DAV:   1    -0.137898372944E+04   -0.56816E-03   -0.77393E-02  5056   0.163E-01    0.105E-01
DAV:   2    -0.137898366045E+04    0.68989E-04   -0.82425E-04  5248   0.183E-02    0.603E-02
DAV:   3    -0.137898364191E+04    0.18537E-04   -0.38691E-04  5376   0.122E-02    0.183E-02
DAV:   4    -0.137898363504E+04    0.68703E-05   -0.43030E-05  5056   0.436E-03    0.114E-02
DAV:   5    -0.137898363403E+04    0.10137E-05   -0.15518E-05  5216   0.277E-03    0.212E-03
DAV:   6    -0.137898363404E+04   -0.48749E-08   -0.10581E-06  4832   0.883E-04    0.103E-03
DAV:   7    -0.137898363408E+04   -0.47861E-07   -0.16509E-07  4800   0.304E-04    0.527E-04
DAV:   8    -0.137898363414E+04   -0.56563E-07   -0.27604E-08  3680   0.185E-04    0.214E-04
DAV:   9    -0.137898363420E+04   -0.57480E-07   -0.89627E-09  3584   0.121E-04    0.116E-04
DAV:  10    -0.137898363425E+04   -0.52270E-07   -0.41826E-09  3264   0.107E-04    0.686E-05
DAV:  11    -0.137898363431E+04   -0.56112E-07   -0.59772E-09  3424   0.124E-04    0.526E-05
DAV:  12    -0.137898363433E+04   -0.28318E-07   -0.44260E-09  3296   0.113E-04    0.330E-05
DAV:  13    -0.137898363437E+04   -0.31854E-07   -0.40285E-09  3168   0.102E-04    0.310E-05
DAV:  14    -0.137898363438E+04   -0.13111E-07   -0.16614E-09  3072   0.623E-05    0.273E-05
DAV:  15    -0.137898363439E+04   -0.10667E-07   -0.48305E-10  3072   0.432E-05    0.142E-05
DAV:  16    -0.137898363440E+04   -0.67375E-08   -0.28213E-10  3072   0.364E-05
  36 F= -.13983702E+04 E0= -.13983702E+04  d E =-.403904E-03  mag=    -0.0000
       N       E                     dE             d eps       ncg     rms          rms(c)
DAV:   1    -0.137898320129E+04    0.43310E-03   -0.80737E-02  4992   0.167E-01    0.121E-01
DAV:   2    -0.137898307182E+04    0.12947E-03   -0.11164E-03  5248   0.217E-02    0.685E-02
DAV:   3    -0.137898304163E+04    0.30196E-04   -0.61147E-04  5168   0.154E-02    0.239E-02
DAV:   4    -0.137898303021E+04    0.11410E-04   -0.63559E-05  4864   0.516E-03    0.154E-02
DAV:   5    -0.137898302843E+04    0.17857E-05   -0.19994E-05  5312   0.304E-03    0.349E-03
DAV:   6    -0.137898302824E+04    0.19067E-06   -0.23398E-06  4800   0.110E-03    0.116E-03
DAV:   7    -0.137898302822E+04    0.20751E-07   -0.27661E-07  4928   0.379E-04    0.795E-04
DAV:   8    -0.137898302828E+04   -0.60667E-07   -0.37997E-08  4016   0.213E-04    0.327E-04
DAV:   9    -0.137898302837E+04   -0.95170E-07   -0.22598E-08  3872   0.172E-04    0.185E-04
DAV:  10    -0.137898302852E+04   -0.14751E-06   -0.87861E-09  3616   0.117E-04    0.106E-04
DAV:  11    -0.137898302867E+04   -0.14386E-06   -0.68245E-09  3520   0.103E-04    0.623E-05
DAV:  12    -0.137898302879E+04   -0.12948E-06   -0.77758E-09  3648   0.101E-04    0.496E-05
DAV:  13    -0.137898302887E+04   -0.72003E-07   -0.34586E-09  3136   0.910E-05    0.367E-05
DAV:  14    -0.137898302895E+04   -0.80239E-07   -0.45232E-09  3264   0.866E-05    0.242E-05
DAV:  15    -0.137898302899E+04   -0.39974E-07   -0.19132E-09  3072   0.631E-05    0.236E-05
DAV:  16    -0.137898302901E+04   -0.18525E-07   -0.49093E-10  3072   0.404E-05    0.129E-05
DAV:  17    -0.137898302902E+04   -0.18917E-07   -0.24914E-10  3072   0.357E-05    0.202E-05
DAV:  18    -0.137898302903E+04   -0.45984E-08    0.42882E-10  3072   0.224E-05
  37 F= -.13983693E+04 E0= -.13983693E+04  d E =0.887842E-03  mag=     0.0000
       N       E                     dE             d eps       ncg     rms          rms(c)
DAV:   1    -0.137898267476E+04    0.35427E-03   -0.82250E-02  5232   0.184E-01    0.129E-01
DAV:   2    -0.137898252710E+04    0.14766E-03   -0.15419E-03  5184   0.290E-02    0.756E-02
DAV:   3    -0.137898249156E+04    0.35537E-04   -0.81171E-04  5376   0.187E-02    0.280E-02
DAV:   4    -0.137898247337E+04    0.18186E-04   -0.10749E-04  5376   0.707E-03    0.163E-02
DAV:   5    -0.137898247277E+04    0.60287E-06   -0.22827E-05  5696   0.322E-03    0.357E-03
DAV:   6    -0.137898247265E+04    0.12074E-06   -0.19297E-06  4784   0.100E-03    0.129E-03
DAV:   7    -0.137898247274E+04   -0.85667E-07   -0.40733E-07  5312   0.444E-04    0.685E-04
DAV:   8    -0.137898247283E+04   -0.92332E-07   -0.32463E-08  3904   0.164E-04    0.344E-04
DAV:   9    -0.137898247296E+04   -0.12896E-06   -0.14860E-08  3840   0.122E-04    0.137E-04
DAV:  10    -0.137898247308E+04   -0.11994E-06   -0.68828E-09  3296   0.923E-05    0.103E-04
DAV:  11    -0.137898247320E+04   -0.12365E-06   -0.64858E-09  3456   0.797E-05    0.540E-05
DAV:  12    -0.137898247330E+04   -0.10052E-06   -0.55826E-09  3296   0.801E-05    0.407E-05
DAV:  13    -0.137898247335E+04   -0.47818E-07   -0.28910E-09  3072   0.792E-05    0.294E-05
DAV:  14    -0.137898247340E+04   -0.50772E-07   -0.32186E-09  3136   0.738E-05    0.184E-05
DAV:  15    -0.137898247343E+04   -0.25058E-07   -0.14121E-09  3072   0.525E-05    0.165E-05
DAV:  16    -0.137898247344E+04   -0.11962E-07   -0.28942E-10  3072   0.339E-05    0.833E-06
DAV:  17    -0.137898247345E+04   -0.91968E-08    0.17852E-11  3072   0.261E-05
  38 F= -.13983690E+04 E0= -.13983690E+04  d E =0.344328E-03  mag=     0.0000
       N       E                     dE             d eps       ncg     rms          rms(c)
DAV:   1    -0.137898377668E+04   -0.13032E-02   -0.81739E-02  5184   0.158E-01    0.136E-01
DAV:   2    -0.137898357054E+04    0.20614E-03   -0.13721E-03  5408   0.249E-02    0.740E-02
DAV:   3    -0.137898353309E+04    0.37455E-04   -0.48325E-04  5632   0.137E-02    0.240E-02
DAV:   4    -0.137898352355E+04    0.95402E-05   -0.72956E-05  5728   0.596E-03    0.108E-02
DAV:   5    -0.137898352431E+04   -0.76598E-06   -0.76257E-06  5056   0.202E-03    0.273E-03
DAV:   6    -0.137898352430E+04    0.90513E-08   -0.91642E-07  5184   0.720E-04    0.146E-03
DAV:   7    -0.137898352436E+04   -0.51921E-07   -0.21687E-07  4800   0.358E-04    0.417E-04
DAV:   8    -0.137898352441E+04   -0.58353E-07   -0.27426E-08  4096   0.134E-04    0.214E-04
DAV:   9    -0.137898352446E+04   -0.47090E-07   -0.32541E-09  3232   0.638E-05    0.128E-04
DAV:  10    -0.137898352452E+04   -0.53711E-07   -0.22905E-09  3168   0.536E-05    0.564E-05
DAV:  11    -0.137898352455E+04   -0.30122E-07   -0.57437E-10  3072   0.416E-05    0.331E-05
DAV:  12    -0.137898352459E+04   -0.41051E-07   -0.16651E-09  3136   0.486E-05    0.406E-05
DAV:  13    -0.137898352460E+04   -0.90076E-08   -0.11295E-10  2944   0.370E-05
  39 F= -.13983702E+04 E0= -.13983702E+04  d E =-.118327E-02  mag=    -0.0000
       N       E                     dE             d eps       ncg     rms          rms(c)
DAV:   1    -0.137898391532E+04   -0.39073E-03   -0.74999E-02  4960   0.152E-01    0.966E-02
DAV:   2    -0.137898385846E+04    0.56859E-04   -0.58014E-04  4864   0.157E-02    0.553E-02
DAV:   3    -0.137898385311E+04    0.53502E-05   -0.20948E-04  5632   0.882E-03    0.157E-02
DAV:   4    -0.137898384886E+04    0.42431E-05   -0.32183E-05  5408   0.388E-03    0.677E-03
DAV:   5    -0.137898384953E+04   -0.66956E-06   -0.33553E-06  4640   0.132E-03    0.176E-03
DAV:   6    -0.137898384962E+04   -0.84809E-07   -0.36946E-07  5072   0.463E-04    0.867E-04
DAV:   7    -0.137898384974E+04   -0.12152E-06   -0.83464E-08  4512   0.246E-04    0.365E-04
DAV:   8    -0.137898384989E+04   -0.14923E-06   -0.19845E-08  3776   0.148E-04    0.194E-04
DAV:   9    -0.137898385002E+04   -0.13203E-06   -0.10314E-08  3616   0.142E-04    0.988E-05
DAV:  10    -0.137898385015E+04   -0.12905E-06   -0.17007E-08  4048   0.192E-04    0.594E-05
DAV:  11    -0.137898385024E+04   -0.88752E-07   -0.17650E-08  4048   0.217E-04    0.455E-05
DAV:  12    -0.137898385031E+04   -0.73895E-07   -0.11552E-08  3840   0.171E-04    0.296E-05
DAV:  13    -0.137898385035E+04   -0.41706E-07   -0.33918E-09  3232   0.935E-05    0.195E-05
DAV:  14    -0.137898385038E+04   -0.30297E-07   -0.80994E-10  3072   0.483E-05    0.117E-05
DAV:  15    -0.137898385040E+04   -0.16706E-07   -0.15042E-10  3072   0.356E-05    0.102E-05
DAV:  16    -0.137898385041E+04   -0.93132E-08    0.15388E-10  3072   0.292E-05
  40 F= -.13983703E+04 E0= -.13983703E+04  d E =-.105923E-03  mag=     0.0000
       N       E                     dE             d eps       ncg     rms          rms(c)
DAV:   1    -0.137898292951E+04    0.92089E-03   -0.76654E-02  4992   0.161E-01    0.109E-01
DAV:   2    -0.137898285945E+04    0.70063E-04   -0.11954E-03  5184   0.222E-02    0.640E-02
DAV:   3    -0.137898284138E+04    0.18073E-04   -0.49508E-04  5440   0.141E-02    0.216E-02
DAV:   4    -0.137898283053E+04    0.10849E-04   -0.74938E-05  5440   0.642E-03    0.110E-02
DAV:   5    -0.137898283145E+04   -0.92000E-06   -0.13619E-05  5440   0.307E-03    0.299E-03
DAV:   6    -0.137898283160E+04   -0.15290E-06   -0.10462E-06  5632   0.978E-04    0.142E-03
DAV:   7    -0.137898283186E+04   -0.25739E-06   -0.23278E-07  5120   0.432E-04    0.484E-04
DAV:   8    -0.137898283205E+04   -0.19447E-06   -0.33421E-08  4032   0.201E-04    0.274E-04
DAV:   9    -0.137898283229E+04   -0.23461E-06   -0.10086E-08  3584   0.103E-04    0.142E-04
DAV:  10    -0.137898283254E+04   -0.24671E-06   -0.99358E-09  3584   0.907E-05    0.729E-05
DAV:  11    -0.137898283272E+04   -0.18037E-06   -0.58821E-09  3328   0.851E-05    0.521E-05
DAV:  12    -0.137898283290E+04   -0.18177E-06   -0.10979E-08  3744   0.142E-04    0.344E-05
DAV:  13    -0.137898283300E+04   -0.10134E-06   -0.92314E-09  3712   0.158E-04    0.320E-05
DAV:  14    -0.137898283305E+04   -0.47119E-07   -0.32436E-09  3168   0.107E-04    0.190E-05
DAV:  15    -0.137898283311E+04   -0.61700E-07   -0.17860E-09  3072   0.721E-05    0.245E-05
DAV:  16    -0.137898283312E+04   -0.13533E-07   -0.53186E-11  3072   0.418E-05    0.171E-05
DAV:  17    -0.137898283313E+04   -0.84401E-08    0.37003E-10  3072   0.259E-05
  41 F= -.13983695E+04 E0= -.13983695E+04  d E =0.802869E-03  mag=    -0.0000
       N       E                     dE             d eps       ncg     rms          rms(c)
DAV:   1    -0.137898372317E+04   -0.89005E-03   -0.78789E-02  4992   0.157E-01    0.120E-01
DAV:   2    -0.137898355957E+04    0.16360E-03   -0.12018E-03  5408   0.223E-02    0.662E-02
DAV:   3    -0.137898353956E+04    0.20009E-04   -0.45516E-04  5728   0.126E-02    0.230E-02
DAV:   4    -0.137898353157E+04    0.79933E-05   -0.84515E-05  5728   0.644E-03    0.100E-02
DAV:   5    -0.137898353271E+04   -0.11404E-05   -0.75675E-06  5056   0.233E-03    0.255E-03
DAV:   6    -0.137898353295E+04   -0.24411E-06   -0.11415E-06  5472   0.896E-04    0.166E-03
DAV:   7    -0.137898353318E+04   -0.22665E-06   -0.29524E-07  5248   0.448E-04    0.578E-04
DAV:   8    -0.137898353351E+04   -0.33015E-06   -0.51407E-08  4096   0.184E-04    0.271E-04
DAV:   9    -0.137898353378E+04   -0.27458E-06   -0.10230E-08  3360   0.101E-04    0.175E-04
DAV:  10    -0.137898353416E+04   -0.37185E-06   -0.15967E-08  3776   0.112E-04    0.916E-05
DAV:  11    -0.137898353439E+04   -0.23507E-06   -0.10073E-08  3712   0.128E-04    0.650E-05
DAV:  12    -0.137898353458E+04   -0.18795E-06   -0.94930E-09  3680   0.125E-04    0.570E-05
DAV:  13    -0.137898353466E+04   -0.81258E-07   -0.78178E-09  3744   0.141E-04    0.383E-05
DAV:  14    -0.137898353475E+04   -0.88563E-07   -0.88021E-09  3680   0.139E-04    0.281E-05
DAV:  15    -0.137898353477E+04   -0.19325E-07   -0.11234E-09  3072   0.675E-05    0.234E-05
DAV:  16    -0.137898353479E+04   -0.17142E-07   -0.23939E-10  3040   0.392E-05    0.191E-05
DAV:  17    -0.137898353479E+04   -0.65047E-08    0.35874E-10  3072   0.267E-05
  42 F= -.13983701E+04 E0= -.13983701E+04  d E =-.601496E-03  mag=     0.0000
       N       E                     dE             d eps       ncg     rms          rms(c)
DAV:   1    -0.137898339442E+04    0.14037E-03   -0.75543E-02  4992   0.153E-01    0.992E-02
DAV:   2    -0.137898332101E+04    0.73414E-04   -0.68957E-04  5376   0.167E-02    0.562E-02
DAV:   3    -0.137898331153E+04    0.94765E-05   -0.21778E-04  5632   0.874E-03    0.161E-02
DAV:   4    -0.137898330769E+04    0.38356E-05   -0.41917E-05  5696   0.456E-03    0.659E-03
DAV:   5    -0.137898330820E+04   -0.50532E-06   -0.42635E-06  5024   0.165E-03    0.196E-03
DAV:   6    -0.137898330851E+04   -0.31236E-06   -0.54808E-07  5600   0.644E-04    0.124E-03
DAV:   7    -0.137898330877E+04   -0.25684E-06   -0.14183E-07  4960   0.328E-04    0.424E-04
DAV:   8    -0.137898330905E+04   -0.28397E-06   -0.26171E-08  3616   0.146E-04    0.190E-04
DAV:   9    -0.137898330930E+04   -0.24763E-06   -0.10703E-08  3552   0.104E-04    0.132E-04
DAV:  10    -0.137898330955E+04   -0.25520E-06   -0.14249E-08  3808   0.137E-04    0.649E-05
DAV:  11    -0.137898330970E+04   -0.14264E-06   -0.98813E-09  3680   0.143E-04    0.509E-05
DAV:  12    -0.137898330980E+04   -0.10268E-06   -0.88275E-09  3744   0.144E-04    0.336E-05
DAV:  13    -0.137898330985E+04   -0.52198E-07   -0.48644E-09  3504   0.117E-04    0.249E-05
DAV:  14    -0.137898330989E+04   -0.42419E-07   -0.18686E-09  3072   0.711E-05    0.143E-05
DAV:  15    -0.137898330992E+04   -0.28958E-07   -0.85286E-10  3072   0.493E-05    0.159E-05
DAV:  16    -0.137898330993E+04   -0.77125E-08    0.34223E-10  2944   0.273E-05
  43 F= -.13983698E+04 E0= -.13983698E+04  d E =0.260299E-03  mag=     0.0000
       N       E                     dE             d eps       ncg     rms          rms(c)
DAV:   1    -0.137898286853E+04    0.44139E-03   -0.78353E-02  4992   0.195E-01    0.112E-01
DAV:   2    -0.137898280610E+04    0.62437E-04   -0.13801E-03  5280   0.256E-02    0.669E-02
DAV:   3    -0.137898278605E+04    0.20048E-04   -0.60244E-04  5376   0.154E-02    0.253E-02
DAV:   4    -0.137898277231E+04    0.13740E-04   -0.83511E-05  5344   0.581E-03    0.139E-02
DAV:   5    -0.137898277173E+04    0.57631E-06   -0.18699E-05  6016   0.289E-03    0.265E-03
DAV:   6    -0.137898277179E+04   -0.53318E-07   -0.96039E-07  4896   0.885E-04    0.119E-03
DAV:   7    -0.137898277192E+04   -0.13082E-06   -0.23487E-07  5104   0.441E-04    0.576E-04
DAV:   8    -0.137898277206E+04   -0.14283E-06   -0.32620E-08  4032   0.237E-04    0.279E-04
DAV:   9    -0.137898277222E+04   -0.15857E-06   -0.14879E-08  3712   0.198E-04    0.141E-04
DAV:  10    -0.137898277237E+04   -0.15178E-06   -0.14586E-08  3760   0.185E-04    0.953E-05
DAV:  11    -0.137898277247E+04   -0.99157E-07   -0.74958E-09  3488   0.143E-04    0.648E-05
DAV:  12    -0.137898277256E+04   -0.91852E-07   -0.89263E-09  3648   0.155E-04    0.355E-05
DAV:  13    -0.137898277261E+04   -0.43772E-07   -0.66427E-09  3568   0.139E-04    0.291E-05
DAV:  14    -0.137898277263E+04   -0.29337E-07   -0.25197E-09  3072   0.886E-05    0.183E-05
DAV:  15    -0.137898277266E+04   -0.28682E-07   -0.16300E-09  3072   0.627E-05    0.157E-05
DAV:  16    -0.137898277267E+04   -0.78144E-08   -0.23140E-10  3072   0.359E-05
  44 F= -.13983693E+04 E0= -.13983693E+04  d E =0.538919E-03  mag=     0.0000
       N       E                     dE             d eps       ncg     rms          rms(c)
DAV:   1    -0.137898343613E+04   -0.66347E-03   -0.73972E-02  4928   0.190E-01    0.864E-02
DAV:   2    -0.137898342356E+04    0.12570E-04   -0.57468E-04  5184   0.167E-02    0.510E-02
DAV:   3    -0.137898341566E+04    0.78976E-05   -0.18210E-04  5696   0.909E-03    0.124E-02
DAV:   4    -0.137898341242E+04    0.32456E-05   -0.22146E-05  5216   0.318E-03    0.712E-03
DAV:   5    -0.137898341225E+04    0.16246E-06   -0.90203E-06  4960   0.193E-03    0.170E-03
DAV:   6    -0.137898341232E+04   -0.63883E-07   -0.73482E-07  4704   0.686E-04    0.785E-04
DAV:   7    -0.137898341242E+04   -0.98837E-07   -0.82024E-08  4064   0.270E-04    0.385E-04
[...]
DAV:  11    -0.137898161347E+04   -0.73054E-06   -0.38001E-08  4064   0.139E-04    0.885E-05
DAV:  12    -0.137898161379E+04   -0.31212E-06   -0.10475E-08  3552   0.920E-05    0.650E-05
DAV:  13    -0.137898161405E+04   -0.26581E-06   -0.10112E-08  3488   0.909E-05    0.456E-05
DAV:  14    -0.137898161417E+04   -0.12193E-06   -0.44336E-09  3104   0.828E-05    0.330E-05
DAV:  15    -0.137898161424E+04   -0.67477E-07   -0.26647E-09  3072   0.731E-05    0.201E-05
DAV:  16    -0.137898161429E+04   -0.47279E-07   -0.16507E-09  3072   0.581E-05    0.237E-05
DAV:  17    -0.137898161430E+04   -0.13359E-07   -0.41166E-11  3072   0.336E-05    0.154E-05
DAV:  18    -0.137898161431E+04   -0.11452E-07    0.20427E-10  3072   0.306E-05    0.124E-05
DAV:  19    -0.137898161432E+04   -0.47148E-08    0.53714E-10  3072   0.201E-05
  60 F= -.13983681E+04 E0= -.13983681E+04  d E =0.895675E-04  mag=    -0.0000
       N       E                     dE             d eps       ncg     rms          rms(c)
DAV:   1    -0.137898142531E+04    0.18900E-03   -0.48448E-01  4992   0.532E-01    0.136E-01
DAV:   2    -0.137898159240E+04   -0.16709E-03   -0.44018E-03  5312   0.464E-02    0.863E-02
DAV:   3    -0.137898149365E+04    0.98741E-04   -0.58432E-04  5536   0.172E-02    0.274E-02
DAV:   4    -0.137898150209E+04   -0.84400E-05   -0.10977E-04  5744   0.569E-03    0.118E-02
DAV:   5    -0.137898150093E+04    0.11609E-05   -0.15680E-05  5344   0.278E-03    0.441E-03
DAV:   6    -0.137898150147E+04   -0.53429E-06   -0.15280E-06  5056   0.919E-04    0.170E-03
DAV:   7    -0.137898150182E+04   -0.35675E-06   -0.33107E-07  4608   0.504E-04    0.539E-04
DAV:   8    -0.137898150213E+04   -0.30309E-06   -0.88036E-08  4576   0.255E-04    0.260E-04
DAV:   9    -0.137898150234E+04   -0.20761E-06   -0.13421E-08  3536   0.105E-04    0.156E-04
DAV:  10    -0.137898150266E+04   -0.32417E-06   -0.16874E-08  3904   0.115E-04    0.874E-05
DAV:  11    -0.137898150280E+04   -0.14120E-06   -0.41611E-09  3168   0.752E-05    0.595E-05
DAV:  12    -0.137898150296E+04   -0.16128E-06   -0.61336E-09  3424   0.715E-05    0.458E-05
DAV:  13    -0.137898150305E+04   -0.86438E-07   -0.21432E-09  3072   0.530E-05    0.340E-05
DAV:  14    -0.137898150312E+04   -0.74346E-07   -0.27747E-09  3136   0.550E-05    0.222E-05
DAV:  15    -0.137898150315E+04   -0.22599E-07   -0.61542E-10  3072   0.424E-05    0.220E-05
DAV:  16    -0.137898150316E+04   -0.15396E-07   -0.22301E-10  3072   0.323E-05    0.102E-05
DAV:  17    -0.137898150318E+04   -0.14465E-07   -0.11110E-10  3072   0.340E-05    0.141E-05
DAV:  18    -0.137898150318E+04   -0.14261E-08    0.32907E-10  2944   0.242E-05
  61 F= -.13983677E+04 E0= -.13983677E+04  d E =0.397761E-03  mag=     0.0000
       N       E                     dE             d eps       ncg     rms          rms(c)
DAV:   1    -0.137898131269E+04    0.19048E-03   -0.49621E-01  5120   0.542E-01    0.153E-01
DAV:   2    -0.137898149144E+04   -0.17875E-03   -0.52166E-03  5696   0.541E-02    0.983E-02
DAV:   3    -0.137898136359E+04    0.12785E-03   -0.65385E-04  5504   0.184E-02    0.350E-02
DAV:   4    -0.137898137119E+04   -0.76014E-05   -0.17233E-04  5792   0.715E-03    0.117E-02
DAV:   5    -0.137898136971E+04    0.14865E-05   -0.17674E-05  5536   0.282E-03    0.554E-03
DAV:   6    -0.137898137016E+04   -0.45642E-06   -0.22743E-06  5696   0.120E-03    0.200E-03
DAV:   7    -0.137898137087E+04   -0.70351E-06   -0.37521E-07  4800   0.576E-04    0.774E-04
DAV:   8    -0.137898137180E+04   -0.93238E-06   -0.16480E-07  4672   0.359E-04    0.468E-04
DAV:   9    -0.137898137271E+04   -0.90900E-06   -0.49889E-08  4160   0.228E-04    0.260E-04
DAV:  10    -0.137898137386E+04   -0.11510E-05   -0.68308E-08  4256   0.259E-04    0.160E-04
DAV:  11    -0.137898137458E+04   -0.72463E-06   -0.49522E-08  4320   0.199E-04    0.128E-04
DAV:  12    -0.137898137504E+04   -0.46028E-06   -0.17483E-08  3872   0.125E-04    0.801E-05
DAV:  13    -0.137898137540E+04   -0.35252E-06   -0.13904E-08  3776   0.119E-04    0.473E-05
DAV:  14    -0.137898137555E+04   -0.15851E-06   -0.69694E-09  3424   0.117E-04    0.375E-05
DAV:  15    -0.137898137566E+04   -0.10722E-06   -0.46558E-09  3232   0.969E-05    0.231E-05
DAV:  16    -0.137898137575E+04   -0.92201E-07   -0.34430E-09  3072   0.742E-05    0.135E-05
DAV:  17    -0.137898137578E+04   -0.31869E-07   -0.97760E-10  3072   0.476E-05    0.102E-05
DAV:  18    -0.137898137580E+04   -0.18772E-07   -0.21943E-10  3072   0.330E-05    0.716E-06
DAV:  19    -0.137898137581E+04   -0.10041E-07    0.37449E-10  3072   0.201E-05    0.507E-06
DAV:  20    -0.137898137582E+04   -0.46566E-08    0.56039E-10  3072   0.144E-05
  62 F= -.13983680E+04 E0= -.13983680E+04  d E =-.273410E-03  mag=     0.0000
       N       E                     dE             d eps       ncg     rms          rms(c)
DAV:   1    -0.137898227874E+04   -0.90293E-03   -0.47076E-01  5056   0.509E-01    0.144E-01
DAV:   2    -0.137898228918E+04   -0.10441E-04   -0.29211E-03  5312   0.385E-02    0.882E-02
DAV:   3    -0.137898222873E+04    0.60448E-04   -0.49492E-04  5632   0.151E-02    0.203E-02
DAV:   4    -0.137898223625E+04   -0.75125E-05   -0.99217E-05  5856   0.493E-03    0.865E-03
DAV:   5    -0.137898223602E+04    0.22561E-06   -0.77947E-06  5248   0.197E-03    0.395E-03
DAV:   6    -0.137898223623E+04   -0.20793E-06   -0.10504E-06  5792   0.100E-03    0.159E-03
DAV:   7    -0.137898223659E+04   -0.36586E-06   -0.29376E-07  4672   0.517E-04    0.538E-04
DAV:   8    -0.137898223703E+04   -0.43667E-06   -0.88390E-08  4544   0.274E-04    0.406E-04
DAV:   9    -0.137898223757E+04   -0.53900E-06   -0.31082E-08  4128   0.202E-04    0.225E-04
DAV:  10    -0.137898223823E+04   -0.65628E-06   -0.47199E-08  4224   0.221E-04    0.164E-04
DAV:  11    -0.137898223856E+04   -0.33238E-06   -0.19608E-08  3936   0.150E-04    0.111E-04
DAV:  12    -0.137898223880E+04   -0.23788E-06   -0.69071E-09  3392   0.109E-04    0.686E-05
DAV:  13    -0.137898223909E+04   -0.29661E-06   -0.16537E-08  4032   0.124E-04    0.464E-05
DAV:  14    -0.137898223916E+04   -0.68059E-07   -0.38683E-09  3232   0.116E-04    0.309E-05
DAV:  15    -0.137898223926E+04   -0.98124E-07   -0.36113E-09  3168   0.955E-05    0.231E-05
DAV:  16    -0.137898223931E+04   -0.50670E-07   -0.15915E-09  3072   0.689E-05    0.214E-05
DAV:  17    -0.137898223934E+04   -0.32800E-07   -0.77014E-10  3072   0.505E-05    0.914E-06
DAV:  18    -0.137898223936E+04   -0.15410E-07   -0.21760E-10  3072   0.395E-05    0.148E-05
DAV:  19    -0.137898223936E+04   -0.22847E-08    0.60415E-10  2944   0.176E-05
  63 F= -.13983689E+04 E0= -.13983689E+04  d E =-.860174E-03  mag=    -0.0000
       N       E                     dE             d eps       ncg     rms          rms(c)
DAV:   1    -0.137898230294E+04   -0.63583E-04   -0.50228E-01  5056   0.508E-01    0.163E-01
DAV:   2    -0.137898228020E+04    0.22740E-04   -0.39762E-03  5600   0.459E-02    0.976E-02
DAV:   3    -0.137898215369E+04    0.12651E-03   -0.62437E-04  5504   0.176E-02    0.290E-02
DAV:   4    -0.137898215974E+04   -0.60527E-05   -0.12352E-04  5952   0.611E-03    0.107E-02
DAV:   5    -0.137898215876E+04    0.97962E-06   -0.17720E-05  5568   0.285E-03    0.520E-03
DAV:   6    -0.137898215972E+04   -0.95660E-06   -0.23248E-06  5440   0.115E-03    0.216E-03
DAV:   7    -0.137898216108E+04   -0.13647E-05   -0.41225E-07  4608   0.633E-04    0.790E-04
DAV:   8    -0.137898216265E+04   -0.15623E-05   -0.19843E-07  4928   0.396E-04    0.502E-04
DAV:   9    -0.137898216452E+04   -0.18746E-05   -0.97046E-08  4224   0.287E-04    0.302E-04
DAV:  10    -0.137898216629E+04   -0.17666E-05   -0.95665E-08  4352   0.264E-04    0.177E-04
DAV:  11    -0.137898216749E+04   -0.12051E-05   -0.65598E-08  4224   0.201E-04    0.132E-04
DAV:  12    -0.137898216807E+04   -0.57506E-06   -0.17348E-08  3872   0.112E-04    0.924E-05
DAV:  13    -0.137898216854E+04   -0.46867E-06   -0.14416E-08  3968   0.103E-04    0.514E-05
DAV:  14    -0.137898216877E+04   -0.23242E-06   -0.62182E-09  3360   0.100E-04    0.382E-05
DAV:  15    -0.137898216890E+04   -0.12905E-06   -0.46517E-09  3104   0.103E-04    0.258E-05
DAV:  16    -0.137898216899E+04   -0.97309E-07   -0.37254E-09  3072   0.865E-05    0.171E-05
DAV:  17    -0.137898216904E+04   -0.47512E-07   -0.13486E-09  3072   0.466E-05    0.113E-05
DAV:  18    -0.137898216906E+04   -0.20445E-07   -0.18276E-10  3072   0.339E-05    0.820E-06
DAV:  19    -0.137898216907E+04   -0.58644E-08    0.28613E-10  3072   0.202E-05
  64 F= -.13983685E+04 E0= -.13983685E+04  d E =0.415068E-03  mag=     0.0000
       N       E                     dE             d eps       ncg     rms          rms(c)
DAV:   1    -0.137898097261E+04    0.11964E-02   -0.45689E-01  5056   0.507E-01    0.140E-01
DAV:   2    -0.137898107367E+04   -0.10106E-03   -0.46670E-03  5472   0.478E-02    0.871E-02
DAV:   3    -0.137898100206E+04    0.71608E-04   -0.61211E-04  5920   0.186E-02    0.334E-02
DAV:   4    -0.137898100541E+04   -0.33427E-05   -0.12558E-04  5600   0.632E-03    0.116E-02
DAV:   5    -0.137898100648E+04   -0.10730E-05   -0.11551E-05  6240   0.247E-03    0.434E-03
DAV:   6    -0.137898100688E+04   -0.40089E-06   -0.16042E-06  5184   0.119E-03    0.222E-03
DAV:   7    -0.137898100763E+04   -0.75273E-06   -0.46236E-07  5024   0.700E-04    0.701E-04
DAV:   8    -0.137898100831E+04   -0.67359E-06   -0.13020E-07  4832   0.418E-04    0.471E-04
DAV:   9    -0.137898100914E+04   -0.83873E-06   -0.52506E-08  4416   0.329E-04    0.265E-04
DAV:  10    -0.137898100995E+04   -0.81069E-06   -0.55764E-08  4352   0.327E-04    0.165E-04
DAV:  11    -0.137898101045E+04   -0.49217E-06   -0.38183E-08  4128   0.209E-04    0.124E-04
DAV:  12    -0.137898101074E+04   -0.29203E-06   -0.83781E-09  3392   0.107E-04    0.806E-05
DAV:  13    -0.137898101100E+04   -0.26060E-06   -0.10188E-08  3712   0.935E-05    0.446E-05
DAV:  14    -0.137898101114E+04   -0.13679E-06   -0.39265E-09  3136   0.817E-05    0.301E-05
DAV:  15    -0.137898101123E+04   -0.89101E-07   -0.32704E-09  3072   0.845E-05    0.218E-05
DAV:  16    -0.137898101128E+04   -0.54075E-07   -0.20421E-09  3072   0.699E-05    0.143E-05
DAV:  17    -0.137898101131E+04   -0.33309E-07   -0.10936E-09  3072   0.484E-05    0.949E-06
DAV:  18    -0.137898101133E+04   -0.12093E-07   -0.12846E-10  3072   0.354E-05    0.810E-06
DAV:  19    -0.137898101133E+04   -0.24884E-08    0.50367E-10  3072   0.195E-05
  65 F= -.13983674E+04 E0= -.13983674E+04  d E =0.104158E-02  mag=    -0.0000
       N       E                     dE             d eps       ncg     rms          rms(c)
DAV:   1    -0.137898216795E+04   -0.11566E-02   -0.49325E-01  5056   0.495E-01    0.151E-01
DAV:   2    -0.137898203743E+04    0.13052E-03   -0.45643E-03  5536   0.475E-02    0.857E-02
DAV:   3    -0.137898191378E+04    0.12365E-03   -0.78619E-04  5760   0.209E-02    0.276E-02
DAV:   4    -0.137898191951E+04   -0.57305E-05   -0.14296E-04  5952   0.710E-03    0.114E-02
DAV:   5    -0.137898192022E+04   -0.71453E-06   -0.13343E-05  6112   0.295E-03    0.476E-03
DAV:   6    -0.137898192058E+04   -0.36178E-06   -0.15387E-06  6240   0.146E-03    0.240E-03
DAV:   7    -0.137898192108E+04   -0.49139E-06   -0.34889E-07  5024   0.674E-04    0.827E-04
DAV:   8    -0.137898192151E+04   -0.43334E-06   -0.12937E-07  4928   0.448E-04    0.402E-04
DAV:   9    -0.137898192190E+04   -0.39343E-06   -0.29718E-08  4288   0.262E-04    0.260E-04
DAV:  10    -0.137898192236E+04   -0.45705E-06   -0.23999E-08  4016   0.267E-04    0.145E-04
DAV:  11    -0.137898192279E+04   -0.42768E-06   -0.34814E-08  4304   0.273E-04    0.116E-04
DAV:  12    -0.137898192302E+04   -0.22960E-06   -0.18043E-08  3872   0.164E-04    0.904E-05
DAV:  13    -0.137898192316E+04   -0.14648E-06   -0.32020E-09  3136   0.835E-05    0.583E-05
DAV:  14    -0.137898192332E+04   -0.15476E-06   -0.56064E-09  3328   0.819E-05    0.307E-05
DAV:  15    -0.137898192338E+04   -0.65236E-07   -0.18439E-09  3136   0.681E-05    0.224E-05
DAV:  16    -0.137898192344E+04   -0.56374E-07   -0.10892E-09  3072   0.517E-05    0.158E-05
DAV:  17    -0.137898192348E+04   -0.44034E-07   -0.63622E-10  3072   0.462E-05    0.103E-05
DAV:  18    -0.137898192351E+04   -0.23589E-07   -0.18917E-10  3072   0.412E-05    0.793E-06
DAV:  19    -0.137898192351E+04   -0.76107E-08    0.35951E-10  3072   0.272E-05
  66 F= -.13983685E+04 E0= -.13983685E+04  d E =-.105135E-02  mag=     0.0000
       N       E                     dE             d eps       ncg     rms          rms(c)
DAV:   1    -0.137898292145E+04   -0.99794E-03   -0.49698E-01  5056   0.489E-01    0.156E-01
DAV:   2    -0.137898289286E+04    0.28593E-04   -0.52199E-03  5472   0.516E-02    0.888E-02
DAV:   3    -0.137898275630E+04    0.13655E-03   -0.98507E-04  5824   0.231E-02    0.314E-02
DAV:   4    -0.137898275988E+04   -0.35732E-05   -0.16193E-04  5760   0.748E-03    0.157E-02
DAV:   5    -0.137898275870E+04    0.11781E-05   -0.21871E-05  5824   0.369E-03    0.484E-03
DAV:   6    -0.137898275869E+04    0.85565E-08   -0.27424E-06  5408   0.141E-03    0.222E-03
DAV:   7    -0.137898275898E+04   -0.29006E-06   -0.44500E-07  5680   0.728E-04    0.872E-04
DAV:   8    -0.137898275943E+04   -0.44580E-06   -0.15619E-07  5200   0.498E-04    0.504E-04
DAV:   9    -0.137898275990E+04   -0.47694E-06   -0.35524E-08  4080   0.290E-04    0.319E-04
DAV:  10    -0.137898276065E+04   -0.74229E-06   -0.53842E-08  4672   0.349E-04    0.187E-04
DAV:  11    -0.137898276121E+04   -0.56678E-06   -0.45725E-08  4192   0.250E-04    0.131E-04
DAV:  12    -0.137898276160E+04   -0.38467E-06   -0.19157E-08  4000   0.138E-04    0.924E-05
DAV:  13    -0.137898276187E+04   -0.26835E-06   -0.62954E-09  3328   0.729E-05    0.583E-05
DAV:  14    -0.137898276206E+04   -0.19354E-06   -0.50798E-09  3360   0.576E-05    0.344E-05
DAV:  15    -0.137898276219E+04   -0.12737E-06   -0.30523E-09  3104   0.543E-05    0.252E-05
DAV:  16    -0.137898276226E+04   -0.70693E-07   -0.20938E-09  3072   0.491E-05    0.194E-05
DAV:  17    -0.137898276229E+04   -0.32596E-07   -0.75530E-10  3072   0.366E-05    0.115E-05
DAV:  18    -0.137898276231E+04   -0.17142E-07   -0.24433E-10  3072   0.291E-05    0.840E-06
DAV:  19    -0.137898276231E+04   -0.44092E-08    0.26812E-10  3072   0.205E-05
  67 F= -.13983693E+04 E0= -.13983693E+04  d E =-.843104E-03  mag=    -0.0000
       N       E                     dE             d eps       ncg     rms          rms(c)
DAV:   1    -0.137898151566E+04    0.12467E-02   -0.50069E-01  5056   0.538E-01    0.137E-01
DAV:   2    -0.137898154073E+04   -0.25076E-04   -0.47744E-03  5568   0.486E-02    0.872E-02
DAV:   3    -0.137898141094E+04    0.12980E-03   -0.66592E-04  5728   0.215E-02    0.293E-02
DAV:   4    -0.137898141783E+04   -0.68973E-05   -0.16143E-04  6016   0.781E-03    0.110E-02
DAV:   5    -0.137898141843E+04   -0.59960E-06   -0.13742E-05  5792   0.323E-03    0.512E-03
DAV:   6    -0.137898141882E+04   -0.39075E-06   -0.19767E-06  5776   0.142E-03    0.244E-03
DAV:   7    -0.137898141950E+04   -0.67829E-06   -0.41470E-07  5312   0.740E-04    0.953E-04
DAV:   8    -0.137898142022E+04   -0.72109E-06   -0.14976E-07  5056   0.486E-04    0.466E-04
DAV:   9    -0.137898142095E+04   -0.72405E-06   -0.55445E-08  4288   0.327E-04    0.310E-04
DAV:  10    -0.137898142172E+04   -0.77116E-06   -0.38294E-08  4384   0.289E-04    0.179E-04
DAV:  11    -0.137898142242E+04   -0.69811E-06   -0.46305E-08  4352   0.270E-04    0.117E-04
DAV:  12    -0.137898142282E+04   -0.40639E-06   -0.27329E-08  4288   0.177E-04    0.872E-05
DAV:  13    -0.137898142303E+04   -0.20425E-06   -0.54330E-09  3376   0.790E-05    0.600E-05
DAV:  14    -0.137898142322E+04   -0.18922E-06   -0.60489E-09  3504   0.626E-05    0.315E-05
DAV:  15    -0.137898142329E+04   -0.73633E-07   -0.15891E-09  3072   0.510E-05    0.234E-05
DAV:  16    -0.137898142336E+04   -0.71246E-07   -0.20447E-09  3072   0.518E-05    0.152E-05
DAV:  17    -0.137898142339E+04   -0.32640E-07   -0.89585E-10  3072   0.443E-05    0.104E-05
DAV:  18    -0.137898142341E+04   -0.12835E-07   -0.93360E-11  3072   0.291E-05    0.632E-06
DAV:  19    -0.137898142341E+04   -0.69413E-08    0.31642E-10  3072   0.221E-05
  68 F= -.13983680E+04 E0= -.13983680E+04  d E =0.133426E-02  mag=    -0.0000
       N       E                     dE             d eps       ncg     rms          rms(c)
DAV:   1    -0.137898178615E+04   -0.36275E-03   -0.49072E-01  4992   0.535E-01    0.144E-01
DAV:   2    -0.137898178157E+04    0.45887E-05   -0.36151E-03  5344   0.452E-02    0.883E-02
DAV:   3    -0.137898166820E+04    0.11336E-03   -0.75702E-04  5632   0.188E-02    0.223E-02
DAV:   4    -0.137898167406E+04   -0.58516E-05   -0.14035E-04  5952   0.646E-03    0.107E-02
DAV:   5    -0.137898167453E+04   -0.47599E-06   -0.10562E-05  6016   0.209E-03    0.557E-03
DAV:   6    -0.137898167525E+04   -0.71699E-06   -0.16229E-06  5056   0.114E-03    0.195E-03
DAV:   7    -0.137898167593E+04   -0.67908E-06   -0.47168E-07  5312   0.624E-04    0.704E-04
DAV:   8    -0.137898167640E+04   -0.46758E-06   -0.10924E-07  4384   0.282E-04    0.411E-04
DAV:   9    -0.137898167685E+04   -0.45684E-06   -0.23056E-08  3712   0.144E-04    0.205E-04
DAV:  10    -0.137898167742E+04   -0.56732E-06   -0.17502E-08  3712   0.110E-04    0.120E-04
DAV:  11    -0.137898167792E+04   -0.50206E-06   -0.15362E-08  3616   0.100E-04    0.751E-05
DAV:  12    -0.137898167821E+04   -0.29067E-06   -0.68081E-09  3328   0.678E-05    0.530E-05
DAV:  13    -0.137898167847E+04   -0.25866E-06   -0.86175E-09  3552   0.739E-05    0.336E-05
DAV:  14    -0.137898167858E+04   -0.10927E-06   -0.40133E-09  3136   0.708E-05    0.246E-05
DAV:  15    -0.137898167862E+04   -0.44063E-07   -0.14721E-09  3072   0.525E-05    0.151E-05
DAV:  16    -0.137898167865E+04   -0.25888E-07   -0.66900E-10  3072   0.414E-05    0.128E-05
DAV:  17    -0.137898167866E+04   -0.79017E-08    0.66923E-11  3072   0.320E-05
  69 F= -.13983683E+04 E0= -.13983683E+04  d E =-.276574E-03  mag=     0.0000
       N       E                     dE             d eps       ncg     rms          rms(c)
DAV:   1    -0.137898194356E+04   -0.26491E-03   -0.48929E-01  4992   0.535E-01    0.148E-01
DAV:   2    -0.137898192683E+04    0.16729E-04   -0.39682E-03  5472   0.476E-02    0.892E-02
DAV:   3    -0.137898181374E+04    0.11309E-03   -0.81213E-04  5536   0.192E-02    0.279E-02
DAV:   4    -0.137898181616E+04   -0.24238E-05   -0.15118E-04  5792   0.687E-03    0.109E-02
DAV:   5    -0.137898181751E+04   -0.13476E-05   -0.14312E-05  6176   0.264E-03    0.482E-03
DAV:   6    -0.137898181808E+04   -0.56891E-06   -0.16296E-06  5472   0.137E-03    0.199E-03
DAV:   7    -0.137898181863E+04   -0.54718E-06   -0.45390E-07  5152   0.590E-04    0.758E-04
DAV:   8    -0.137898181898E+04   -0.35283E-06   -0.74144E-08  4672   0.256E-04    0.391E-04
DAV:   9    -0.137898181941E+04   -0.42761E-06   -0.23094E-08  3808   0.190E-04    0.203E-04
DAV:  10    -0.137898181981E+04   -0.40549E-06   -0.19697E-08  4032   0.162E-04    0.140E-04
DAV:  11    -0.137898182022E+04   -0.40486E-06   -0.23661E-08  4096   0.168E-04    0.870E-05
DAV:  12    -0.137898182041E+04   -0.18903E-06   -0.95547E-09  3616   0.125E-04    0.693E-05
DAV:  13    -0.137898182053E+04   -0.12896E-06   -0.64272E-09  3328   0.110E-04    0.433E-05
DAV:  14    -0.137898182064E+04   -0.10098E-06   -0.73024E-09  3520   0.122E-04    0.370E-05
DAV:  15    -0.137898182068E+04   -0.42448E-07   -0.35988E-09  3104   0.100E-04    0.211E-05
DAV:  16    -0.137898182072E+04   -0.42040E-07   -0.18935E-09  3072   0.624E-05    0.240E-05
DAV:  17    -0.137898182074E+04   -0.15949E-07   -0.33686E-10  2944   0.402E-05    0.198E-05
DAV:  18    -0.137898182075E+04   -0.11161E-07    0.11484E-10  3072   0.292E-05    0.897E-06
DAV:  19    -0.137898182076E+04   -0.85129E-08    0.38597E-10  2944   0.215E-05
  70 F= -.13983681E+04 E0= -.13983681E+04  d E =0.114960E-03  mag=     0.0000
