       N       E                     dE             d eps       ncg     rms          rms(c)
DAV:   1    -0.137740823767E+04   -0.13774E+04   -0.13569E+00  6304   0.986E-01    0.952E-01
DAV:   2    -0.137916444598E+04   -0.17562E+01   -0.12081E+00  6048   0.957E-01    0.413E-01
DAV:   3    -0.137917439169E+04   -0.99457E-02   -0.43607E-02  6720   0.231E-01    0.278E-01
DAV:   4    -0.137917443096E+04   -0.39274E-04   -0.21798E-03  5600   0.579E-02    0.224E-01
DAV:   5    -0.137917443322E+04   -0.22636E-05   -0.20158E-04  6816   0.183E-02    0.189E-01
DAV:   6    -0.137917444372E+04   -0.10491E-04   -0.25228E-05  6592   0.742E-03    0.162E-01
DAV:   7    -0.137917444867E+04   -0.49537E-05   -0.24036E-05  6688   0.806E-03    0.130E-01
DAV:   8    -0.137917445286E+04   -0.41917E-05   -0.18300E-05  6112   0.663E-03    0.107E-01
DAV:   9    -0.137917445702E+04   -0.41546E-05   -0.55634E-06  4480   0.365E-03    0.903E-02
DAV:  10    -0.137917446177E+04   -0.47526E-05   -0.17770E-05  6272   0.669E-03    0.582E-02
DAV:  11    -0.137917446560E+04   -0.38314E-05   -0.33478E-05  6592   0.925E-03    0.202E-02
DAV:  12    -0.137917446674E+04   -0.11376E-05   -0.51953E-06  4576   0.315E-03    0.116E-02
DAV:  13    -0.137917446690E+04   -0.16268E-06   -0.83972E-07  3072   0.151E-03
   1 F= -.13986992E+04 E0= -.13986992E+04  d E =-.296398E-25  mag=    -0.0000
