 vasp.5.4.4.18Apr17-6-g9f103f2a35 (build Mar 06 2019 16:23:31) complex          
  
 executed on             LinuxIFC date 2021.11.02  20:12:42
 running on  128 total cores
 distrk:  each k-point on  128 cores,    1 groups
 distr:  one band on NCORES_PER_BAND=  16 cores,    8 groups


--------------------------------------------------------------------------------------------------------


 INCAR:
 POTCAR:    PAW_PBE Zr_sv 04Jan2005               
 POTCAR:    PAW_PBE O 08Apr2002                   
 POTCAR:    PAW_PBE H 15Jun2001                   
 POTCAR:    PAW_PBE C 08Apr2002                   
 POTCAR:    PAW_PBE Zr_sv 04Jan2005               
   VRHFIN =Zr: 4s4p5s4d                                                         
   LEXCH  = PE                                                                  
   EATOM  =  1284.2219 eV,   94.3876 Ry                                         
                                                                                
   TITEL  = PAW_PBE Zr_sv 04Jan2005                                             
   LULTRA =        F    use ultrasoft PP ?                                      
   IUNSCR =        1    unscreen: 0-lin 1-nonlin 2-no                           
   RPACOR =    2.200    partial core radius                                     
   POMASS =   91.224; ZVAL   =   12.000    mass and valenz                      
   RCORE  =    2.500    outmost cutoff radius                                   
   RWIGS  =    3.070; RWIGS  =    1.625    wigner-seitz radius (au A)           
   ENMAX  =  229.898; ENMIN  =  172.424 eV                                      
   ICORE  =        3    local potential                                         
   LCOR   =        T    correct aug charges                                     
   LPAW   =        T    paw PP                                                  
   EAUG   =  461.257                                                            
   DEXC   =    0.000                                                            
   RMAX   =    2.561    core radius for proj-oper                               
   RAUG   =    1.300    factor for augmentation sphere                          
   RDEP   =    2.597    radius for radial grids                                 
   RDEPT  =    2.007    core radius for aug-charge                              
                                                                                
   Atomic configuration                                                         
   11 entries                                                                   
     n  l   j            E        occ.                                          
     1  0  0.50    -17820.0161   2.0000                                         
     2  0  0.50     -2467.0882   2.0000                                         
     2  1  1.50     -2199.6095   6.0000                                         
     3  0  0.50      -402.4863   2.0000                                         
     3  1  1.50      -315.3675   6.0000                                         
     3  2  2.50      -172.4472  10.0000                                         
     4  0  0.50       -52.4146   2.0000                                         
     5  0  0.50        -3.8421   1.0000                                         
     4  1  1.50       -30.5054   6.0000                                         
     4  2  2.50        -2.3341   3.0000                                         
     4  3  2.50        -1.3606   0.0000                                         
   Description                                                                  
     l       E           TYP  RCUT    TYP  RCUT                                 
     0    -52.4145962     23  2.200                                             
     0     -3.8421270     23  2.500                                             
     1    -30.5053914     23  2.200                                             
     1     20.4087390     23  2.200                                             
     2     -2.3340816     23  2.500                                             
     2     -0.6120942     23  2.500                                             
     3     -4.0817478     23  2.500                                             
  local pseudopotential read in
  partial core-charges read in
  partial kinetic energy density read in
  atomic valenz-charges read in
  non local Contribution for L=           0  read in
    real space projection operators read in
  non local Contribution for L=           0  read in
    real space projection operators read in
  non local Contribution for L=           1  read in
    real space projection operators read in
  non local Contribution for L=           1  read in
    real space projection operators read in
  non local Contribution for L=           2  read in
    real space projection operators read in
  non local Contribution for L=           2  read in
    real space projection operators read in
    PAW grid and wavefunctions read in
 
   number of l-projection  operators is LMAX  =           6
   number of lm-projection operators is LMMAX =          18
 
 POTCAR:    PAW_PBE O 08Apr2002                   
   VRHFIN =O: s2p4                                                              
   LEXCH  = PE                                                                  
   EATOM  =   432.3788 eV,   31.7789 Ry                                         
                                                                                
   TITEL  = PAW_PBE O 08Apr2002                                                 
   LULTRA =        F    use ultrasoft PP ?                                      
   IUNSCR =        1    unscreen: 0-lin 1-nonlin 2-no                           
   RPACOR =    1.200    partial core radius                                     
   POMASS =   16.000; ZVAL   =    6.000    mass and valenz                      
   RCORE  =    1.520    outmost cutoff radius                                   
   RWIGS  =    1.550; RWIGS  =    0.820    wigner-seitz radius (au A)           
   ENMAX  =  400.000; ENMIN  =  300.000 eV                                      
   ICORE  =        2    local potential                                         
   LCOR   =        T    correct aug charges                                     
   LPAW   =        T    paw PP                                                  
   EAUG   =  605.392                                                            
   DEXC   =    0.000                                                            
   RMAX   =    1.553    core radius for proj-oper                               
   RAUG   =    1.300    factor for augmentation sphere                          
   RDEP   =    1.550    radius for radial grids                                 
   RDEPT  =    1.329    core radius for aug-charge                              
                                                                                
   Atomic configuration                                                         
    4 entries                                                                   
     n  l   j            E        occ.                                          
     1  0  0.50      -514.6923   2.0000                                         
     2  0  0.50       -23.9615   2.0000                                         
     2  1  0.50        -9.0305   4.0000                                         
     3  2  1.50        -9.5241   0.0000                                         
   Description                                                                  
     l       E           TYP  RCUT    TYP  RCUT                                 
     0    -23.9615318     23  1.200                                             
     0     -9.5240782     23  1.200                                             
     1     -9.0304911     23  1.520                                             
     1      8.1634956     23  1.520                                             
     2     -9.5240782      7  1.500                                             
  local pseudopotential read in
  partial core-charges read in
  partial kinetic energy density read in
  kinetic energy density of atom read in
  atomic valenz-charges read in
  non local Contribution for L=           0  read in
    real space projection operators read in
  non local Contribution for L=           0  read in
    real space projection operators read in
  non local Contribution for L=           1  read in
    real space projection operators read in
  non local Contribution for L=           1  read in
    real space projection operators read in
    PAW grid and wavefunctions read in
 
   number of l-projection  operators is LMAX  =           4
   number of lm-projection operators is LMMAX =           8
 
 POTCAR:    PAW_PBE H 15Jun2001                   
   VRHFIN =H: ultrasoft test                                                    
   LEXCH  = PE                                                                  
   EATOM  =    12.4884 eV,    0.9179 Ry                                         
                                                                                
   TITEL  = PAW_PBE H 15Jun2001                                                 
   LULTRA =        F    use ultrasoft PP ?                                      
   IUNSCR =        0    unscreen: 0-lin 1-nonlin 2-no                           
   RPACOR =    0.000    partial core radius                                     
   POMASS =    1.000; ZVAL   =    1.000    mass and valenz                      
   RCORE  =    1.100    outmost cutoff radius                                   
   RWIGS  =    0.700; RWIGS  =    0.370    wigner-seitz radius (au A)           
   ENMAX  =  250.000; ENMIN  =  200.000 eV                                      
   RCLOC  =    0.701    cutoff for local pot                                    
   LCOR   =        T    correct aug charges                                     
   LPAW   =        T    paw PP                                                  
   EAUG   =  400.000                                                            
   RMAX   =    1.123    core radius for proj-oper                               
   RAUG   =    1.200    factor for augmentation sphere                          
   RDEP   =    1.112    radius for radial grids                                 
   RDEPT  =    0.926    core radius for aug-charge                              
                                                                                
   Atomic configuration                                                         
    2 entries                                                                   
     n  l   j            E        occ.                                          
     1  0  0.50        -6.4927   1.0000                                         
     2  1  0.50        -3.4015   0.0000                                         
   Description                                                                  
     l       E           TYP  RCUT    TYP  RCUT                                 
     0     -6.4927494     23  1.100                                             
     0      6.8029130     23  1.100                                             
     1     -4.0817478     23  1.100                                             
  local pseudopotential read in
  atomic valenz-charges read in
  non local Contribution for L=           0  read in
    real space projection operators read in
  non local Contribution for L=           0  read in
    real space projection operators read in
  non local Contribution for L=           1  read in
    real space projection operators read in
    PAW grid and wavefunctions read in
 
   number of l-projection  operators is LMAX  =           3
   number of lm-projection operators is LMMAX =           5
 
 POTCAR:    PAW_PBE C 08Apr2002                   
   VRHFIN =C: s2p2                                                              
   LEXCH  = PE                                                                  
   EATOM  =   147.1560 eV,   10.8157 Ry                                         
                                                                                
   TITEL  = PAW_PBE C 08Apr2002                                                 
   LULTRA =        F    use ultrasoft PP ?                                      
   IUNSCR =        1    unscreen: 0-lin 1-nonlin 2-no                           
   RPACOR =    1.200    partial core radius                                     
   POMASS =   12.011; ZVAL   =    4.000    mass and valenz                      
   RCORE  =    1.500    outmost cutoff radius                                   
   RWIGS  =    1.630; RWIGS  =    0.863    wigner-seitz radius (au A)           
   ENMAX  =  400.000; ENMIN  =  300.000 eV                                      
   ICORE  =        2    local potential                                         
   LCOR   =        T    correct aug charges                                     
   LPAW   =        T    paw PP                                                  
   EAUG   =  644.873                                                            
   DEXC   =    0.000                                                            
   RMAX   =    1.529    core radius for proj-oper                               
   RAUG   =    1.300    factor for augmentation sphere                          
   RDEP   =    1.501    radius for radial grids                                 
   RDEPT  =    1.300    core radius for aug-charge                              
                                                                                
   Atomic configuration                                                         
    4 entries                                                                   
     n  l   j            E        occ.                                          
     1  0  0.50      -273.3789   2.0000                                         
     2  0  0.50       -13.7508   2.0000                                         
     2  1  0.50        -5.2854   2.0000                                         
     3  2  1.50        -5.4423   0.0000                                         
   Description                                                                  
     l       E           TYP  RCUT    TYP  RCUT                                 
     0    -13.7508458     23  1.200                                             
     0     -8.2022199     23  1.200                                             
     1     -5.2854383     23  1.500                                             
     1     34.0145650     23  1.500                                             
     2     -5.4423304      7  1.500                                             
  local pseudopotential read in
  partial core-charges read in
  partial kinetic energy density read in
  atomic valenz-charges read in
  non local Contribution for L=           0  read in
    real space projection operators read in
  non local Contribution for L=           0  read in
    real space projection operators read in
  non local Contribution for L=           1  read in
    real space projection operators read in
  non local Contribution for L=           1  read in
    real space projection operators read in
    PAW grid and wavefunctions read in
 
   number of l-projection  operators is LMAX  =           4
   number of lm-projection operators is LMMAX =           8
 
 Optimization of the real space projectors (new method)

 maximal supplied QI-value         = 15.12
 optimisation between [QCUT,QGAM] = [ 11.34, 22.83] = [ 36.00,145.93] Ry 
 Optimized for a Real-space Cutoff    1.47 Angstroem

   l    n(q)    QCUT    max X(q) W(low)/X(q) W(high)/X(q)  e(spline) 
   0     10    11.338    12.107    0.38E-04    0.13E-04    0.27E-07
   0     10    11.338     9.948    0.69E-04    0.30E-04    0.38E-07
   1     10    11.338     3.563    0.26E-04    0.18E-04    0.40E-07
   1     10    11.338     4.524    0.25E-03    0.39E-04    0.44E-06
   2      9    11.338    87.261    0.26E-03    0.91E-05    0.26E-06
   2      9    11.338    70.950    0.25E-03    0.91E-05    0.25E-06
 Optimization of the real space projectors (new method)

 maximal supplied QI-value         = 24.76
 optimisation between [QCUT,QGAM] = [ 11.39, 22.77] = [ 36.31,145.25] Ry 
 Optimized for a Real-space Cutoff    1.00 Angstroem

   l    n(q)    QCUT    max X(q) W(low)/X(q) W(high)/X(q)  e(spline) 
   0      7    11.387    20.381    0.39E-03    0.13E-02    0.15E-06
   0      7    11.387    15.268    0.42E-03    0.14E-02    0.17E-06
   1      6    11.387     5.964    0.41E-03    0.11E-02    0.17E-06
   1      6    11.387     5.382    0.39E-03    0.87E-03    0.15E-06
 Optimization of the real space projectors (new method)

 maximal supplied QI-value         = 34.20
 optimisation between [QCUT,QGAM] = [ 11.29, 22.57] = [ 35.68,142.71] Ry 
 Optimized for a Real-space Cutoff    1.16 Angstroem

   l    n(q)    QCUT    max X(q) W(low)/X(q) W(high)/X(q)  e(spline) 
   0      8    11.287    19.460    0.40E-03    0.73E-03    0.16E-06
   0      8    11.287    12.209    0.38E-03    0.70E-03    0.15E-06
   1      7    11.287     4.655    0.22E-03    0.25E-04    0.22E-06
 Optimization of the real space projectors (new method)

 maximal supplied QI-value         = 25.13
 optimisation between [QCUT,QGAM] = [ 11.31, 22.87] = [ 35.82,146.48] Ry 
 Optimized for a Real-space Cutoff    1.00 Angstroem

   l    n(q)    QCUT    max X(q) W(low)/X(q) W(high)/X(q)  e(spline) 
   0      7    11.310   115.676    0.43E-03    0.13E-02    0.19E-06
   0      7    11.310    87.132    0.43E-03    0.13E-02    0.18E-06
   1      6    11.310     4.429    0.42E-03    0.74E-03    0.11E-06
   1      6    11.310     2.733    0.34E-03    0.55E-03    0.92E-07
  PAW_PBE Zr_sv 04Jan2005               :
 energy of atom  1       EATOM=-1284.2219
 kinetic energy error for atom=    0.0049 (will be added to EATOM!!)
  PAW_PBE O 08Apr2002                   :
 energy of atom  2       EATOM= -432.3788
 kinetic energy error for atom=    0.0224 (will be added to EATOM!!)
  PAW_PBE H 15Jun2001                   :
 energy of atom  3       EATOM=  -12.4884
 kinetic energy error for atom=    0.0020 (will be added to EATOM!!)
  PAW_PBE C 08Apr2002                   :
 energy of atom  4       EATOM= -147.1560
 kinetic energy error for atom=    0.0076 (will be added to EATOM!!)
 
 
 POSCAR: Zr   O    H    C                        
  positions in direct lattice
  velocities in cartesian coordinates
  No initial velocities read in
 exchange correlation table for  LEXCH =        8
   RHO(1)=    0.500       N(1)  =     2000
   RHO(2)=  100.500       N(2)  =     4000

 VTST: version 3.2, (02/03/18)

 CHAIN: initializing optimizer
 
 OPT: Using Conjugate-Gradient optimizer
 OPT: CG, Init
 OPT: CG, FDSTEP      0.005000
 OPT: CG, MAXMOVE      0.200000
 
 CHAIN: Read ICHAIN            2
 
 POSCAR: Zr   O    H    C                        
  positions in direct lattice
  velocities in cartesian coordinates
  No initial velocities read in
 CHAIN: Running the Dimer method

 Dimer: -----------------
 Dimer: Input Parameters
 Dimer:   Seed      0
 Dimer: RotMax      4
 Dimer:     dR      0.005000
 Dimer:  FNMax      1.000000
 Dimer:  FNMin      0.010000
 Dimer: -----------------
 


--------------------------------------------------------------------------------------------------------


 ion  position               nearest neighbor table
   1  0.088  0.321  0.038-  78 2.10  62 2.10  50 2.18  74 2.19  61 2.26  54 2.30  16 3.37   6 3.50
                            12 3.52  13 3.65
   2  0.338  0.821  0.038-  79 2.10  63 2.10  51 2.18  75 2.19  58 2.26  55 2.30  13 3.37   7 3.50
                             9 3.52  14 3.65
   3  0.588  0.321  0.038-  80 2.10  64 2.10  52 2.18  76 2.19  59 2.26  56 2.30  14 3.37   8 3.50
                            10 3.52  15 3.65
   4  0.838  0.821  0.038-  81 2.10  65 2.10  53 2.18  77 2.19  60 2.26  57 2.30  15 3.37   5 3.50
                            11 3.52  16 3.65
   5  0.070  0.834  0.049-  82 2.07  66 2.10  65 2.18  58 2.19  57 2.22  70 2.30  12 3.37  17 3.47
                             4 3.50  16 3.52   9 3.65
   6  0.320  0.334  0.049-  83 2.06  67 2.10  62 2.18  59 2.19  54 2.22  71 2.30   9 3.37  18 3.47
                             1 3.50  13 3.52  10 3.65
   7  0.570  0.834  0.049-  84 2.06  68 2.10  63 2.18  60 2.19  55 2.22  72 2.30  10 3.37  19 3.49
                             2 3.50  14 3.52  11 3.65
   8  0.820  0.334  0.049-  85 2.08  69 2.10  64 2.18  61 2.19  56 2.22  73 2.30  11 3.37   3 3.50
                            20 3.52  15 3.52  12 3.65
   9  0.238  0.068  0.057-  62 2.10  86 2.17  67 2.18  70 2.19  75 2.22  58 2.30   6 3.37  17 3.49
                            14 3.50  22 3.51   2 3.52   5 3.65
  10  0.488  0.568  0.057-  63 2.10  87 2.17  68 2.18  71 2.19  76 2.22  59 2.30   7 3.37  18 3.48
                            15 3.50  23 3.51   3 3.52   6 3.65
  11  0.738  0.068  0.057-  64 2.10  69 2.18  88 2.18  72 2.19  77 2.22  60 2.30   8 3.37  19 3.47
                            16 3.50  24 3.52   4 3.52   7 3.65
  12  0.988  0.568  0.057-  65 2.10  66 2.18  89 2.18  73 2.19  74 2.22  61 2.30   5 3.37  13 3.50
                             1 3.52  21 3.52  20 3.54   8 3.65
  13  0.220  0.581  0.068-  51 2.10  66 2.10  79 2.18  54 2.19  90 2.25  71 2.26  74 2.30   2 3.37
                            26 3.49  18 3.50  21 3.50  12 3.50   6 3.52   1 3.65
  14  0.470  0.081  0.068-  52 2.10  67 2.10  80 2.18  55 2.19  72 2.26  91 2.26  75 2.30   3 3.37
                            27 3.48  22 3.49   9 3.50  19 3.51   7 3.52   2 3.65
  15  0.720  0.581  0.068-  53 2.10  68 2.10  81 2.18  56 2.19  73 2.26  92 2.26  76 2.30   4 3.37
                            23 3.49  28 3.50  10 3.50   8 3.52  20 3.53   3 3.65
  16  0.970  0.081  0.068-  50 2.10  69 2.10  78 2.18  57 2.19  70 2.26  93 2.26  77 2.30   1 3.37
                            17 3.49  24 3.50  11 3.50  25 3.50   5 3.52   4 3.65
  17  0.106  0.983  0.171-  94 2.09 110 2.13  82 2.17  70 2.19 106 2.20  93 2.23  86 2.31  32 3.39
                             5 3.47   9 3.49  16 3.49  22 3.52  25 3.54  29 3.66
  18  0.356  0.484  0.171-  95 2.09 111 2.13  83 2.17  71 2.19 107 2.19  90 2.23  87 2.30  29 3.37
                             6 3.47  10 3.48  13 3.50  23 3.52  26 3.54  30 3.65
  19  0.608  0.985  0.171-  96 2.09 112 2.14  84 2.18  72 2.19 108 2.20  91 2.23  88 2.27  30 3.39
                            11 3.47   7 3.49  24 3.49  14 3.51  27 3.52  31 3.70
  20  0.855  0.483  0.173-  97 2.10 113 2.11  85 2.18 109 2.20  92 2.23  73 2.25  89 2.33  31 3.31
                            28 3.50   8 3.52  21 3.53  15 3.53  12 3.54  32 3.65
  21  0.089  0.495  0.183- 114 2.09  98 2.11  97 2.17  90 2.18  74 2.24  89 2.27 102 2.29  25 3.37
                            13 3.50  32 3.51  12 3.52  20 3.53  26 3.63  33 3.64
  22  0.339  0.995  0.182- 115 2.10  99 2.11  94 2.18  91 2.19  75 2.24 103 2.26  86 2.27  26 3.39
                            14 3.49  29 3.51   9 3.51  17 3.52  34 3.61  27 3.62
  23  0.589  0.493  0.182- 100 2.08 116 2.11  95 2.17  92 2.18  76 2.22  87 2.29 104 2.31  27 3.36
                            15 3.49  35 3.51  10 3.51  18 3.52  30 3.56  28 3.69
  24  0.839  0.996  0.183- 117 2.10 101 2.11  96 2.18  93 2.18  77 2.25  88 2.26 105 2.28  28 3.37
                            19 3.49  16 3.50  11 3.52  31 3.54  36 3.63  25 3.64
  25  0.004  0.231  0.191-  97 2.10  78 2.10 121 2.18  98 2.19 105 2.21 106 2.29  93 2.30  21 3.37
                            37 3.45  16 3.50  17 3.54  29 3.55  24 3.64  36 3.66
  26  0.253  0.730  0.191-  79 2.10  94 2.10 102 2.18  99 2.20 118 2.20 107 2.29  90 2.29  22 3.39
                            38 3.45  13 3.49  18 3.54  30 3.55  21 3.63  33 3.66
  27  0.504  0.229  0.191-  80 2.09  95 2.11 100 2.18 119 2.19 103 2.19  91 2.29 108 2.29  23 3.36
                            39 3.46  14 3.48  19 3.52  31 3.59  22 3.62  34 3.66
  28  0.757  0.730  0.191-  81 2.08  96 2.11 101 2.16 120 2.22 104 2.23 109 2.24  92 2.30  24 3.37
                            35 3.49  32 3.49  15 3.50  20 3.50  40 3.55  23 3.69
  29  0.239  0.242  0.201-  98 2.10  83 2.10 122 2.20 103 2.21 111 2.21  86 2.23 106 2.29  18 3.37
                            37 3.42  42 3.50  22 3.51  25 3.55  34 3.63  17 3.66
  30  0.488  0.743  0.199-  99 2.08  84 2.09 123 2.20 112 2.20  87 2.22 104 2.25 107 2.30  19 3.39
                            38 3.44  43 3.49  35 3.49  26 3.55  23 3.56  18 3.65
  31  0.741  0.246  0.204-  85 2.11 113 2.12 100 2.12 105 2.21 124 2.24  88 2.30 108 2.32  20 3.31
                            39 3.43  24 3.54  44 3.58  27 3.59  36 3.62  19 3.70
  32  0.988  0.741  0.202- 101 2.11  82 2.13 110 2.19 125 2.21 102 2.21  89 2.23 109 2.27  17 3.39
                            41 3.47  28 3.49  40 3.51  21 3.51  33 3.63  20 3.65
  33  0.122  0.642  0.314- 142 2.02 126 2.16 138 2.18 114 2.21 125 2.25 118 2.38 102 2.41  45 3.23
                            41 3.48  38 3.55  32 3.63  21 3.64  26 3.66  46 3.72
  34  0.371  0.141  0.313- 143 2.03 127 2.14 139 2.19 115 2.20 122 2.24 119 2.35 103 2.43  46 3.23
                            42 3.49  39 3.54  22 3.61  29 3.63  27 3.66  47 3.67
  35  0.622  0.648  0.304- 140 2.15 128 2.16 144 2.17 123 2.20 104 2.20 116 2.20 120 2.26  49 3.30
                            47 3.40  43 3.44  28 3.49  30 3.49  23 3.51  40 3.56  48 3.72
  36  0.874  0.141  0.314- 145 2.03 129 2.13 141 2.13 117 2.23 124 2.28 105 2.39 121 2.41  48 3.22
                            44 3.44  37 3.54  31 3.62  24 3.63  25 3.66  45 3.73
  37  0.109  0.162  0.313- 130 2.09 121 2.14 106 2.16 122 2.16 129 2.17 134 2.17  29 3.42  25 3.45
                            41 3.45  45 3.52  36 3.54  42 3.58
  38  0.357  0.660  0.312- 131 2.10 107 2.15 118 2.15 126 2.16 123 2.17 135 2.17  30 3.44  42 3.45
                            26 3.45  46 3.53  33 3.55  43 3.59
  39  0.606  0.160  0.313- 132 2.11 136 2.11 108 2.15 127 2.16 124 2.17 119 2.20  31 3.43  43 3.44
                            27 3.46  47 3.47  34 3.54  44 3.65
  40  0.857  0.662  0.319- 133 2.10 125 2.18 120 2.19 137 2.22 146 2.23 128 2.26 109 2.28  48 3.51
                            32 3.51  44 3.51  28 3.55  35 3.56  41 3.60  49 3.71
  41  0.026  0.890  0.324- 110 2.05 138 2.15 129 2.16 137 2.19 130 2.20 125 2.29  37 3.45  32 3.47
                            33 3.48  46 3.51  40 3.60
  42  0.275  0.389  0.325- 111 2.06 139 2.13 126 2.14 131 2.24 134 2.26 122 2.29  38 3.45  34 3.49
                            29 3.50  47 3.50  37 3.58
  43  0.523  0.888  0.324- 112 2.05 127 2.14 140 2.14 132 2.18 135 2.26 123 2.30  35 3.44  39 3.44
                            30 3.49  48 3.56  38 3.59
  44  0.779  0.384  0.335- 147 2.08 141 2.13 133 2.17 128 2.25 113 2.26 124 2.27 136 2.51  49 3.28
                            36 3.44  45 3.46  40 3.51  31 3.58  39 3.65
  45  0.009  0.408  0.336- 142 2.03 114 2.07 133 2.16 141 2.23 121 2.30 134 2.30  33 3.23  44 3.46
                            37 3.52  36 3.73
  46  0.258  0.908  0.336- 143 2.03 115 2.07 130 2.15 138 2.28 135 2.30 118 2.30  34 3.23  41 3.51
                            38 3.53  33 3.72
  47  0.506  0.403  0.334- 116 2.06 136 2.14 131 2.16 144 2.20 119 2.24 139 2.25  35 3.40  39 3.47
                            42 3.50  34 3.67  49 3.84
  48  0.759  0.909  0.336- 145 2.01 117 2.05 132 2.17 137 2.25 120 2.32 140 2.37  36 3.22  40 3.51
                            43 3.56  35 3.72
  49  0.692  0.549  0.423- 147 1.94 155 1.94 144 2.12 146 2.20 128 2.34 166 2.67 165 2.80  44 3.28
                            35 3.30  40 3.71  47 3.84
  50  0.024  0.173  0.000-  16 2.10   1 2.18
  51  0.274  0.673  0.000-  13 2.10   2 2.18
  52  0.524  0.173  0.000-  14 2.10   3 2.18
  53  0.774  0.673  0.000-  15 2.10   4 2.18
  54  0.215  0.432  0.016-  13 2.19   6 2.22   1 2.30
  55  0.465  0.932  0.016-  14 2.19   7 2.22   2 2.30
  56  0.715  0.432  0.016-  15 2.19   8 2.22   3 2.30
  57  0.965  0.932  0.016-  16 2.19   5 2.22   4 2.30
  58  0.207  0.891  0.025-   5 2.19   2 2.26   9 2.30
  59  0.457  0.391  0.025-   6 2.19   3 2.26  10 2.30
  60  0.707  0.891  0.025-   7 2.19   4 2.26  11 2.30
  61  0.957  0.391  0.025-   8 2.19   1 2.26  12 2.30
  62  0.197  0.226  0.044-   9 2.10   1 2.10   6 2.18
  63  0.447  0.726  0.044-  10 2.10   2 2.10   7 2.18
  64  0.697  0.226  0.044-  11 2.10   3 2.10   8 2.18
  65  0.947  0.726  0.044-  12 2.10   4 2.10   5 2.18
  66  0.111  0.675  0.062-   5 2.10  13 2.10  12 2.18
  67  0.361  0.175  0.062-   6 2.10  14 2.10   9 2.18
  68  0.611  0.675  0.062-   7 2.10  15 2.10  10 2.18
  69  0.861  0.175  0.062-   8 2.10  16 2.10  11 2.18
  70  0.101  0.010  0.081-  17 2.19   9 2.19  16 2.26   5 2.30
  71  0.351  0.510  0.081-  18 2.19  10 2.19  13 2.26   6 2.30
  72  0.601  0.010  0.081-  19 2.19  11 2.19  14 2.26   7 2.30
  73  0.851  0.510  0.081-  12 2.19  20 2.25  15 2.26   8 2.30
  74  0.093  0.470  0.090-   1 2.19  12 2.22  21 2.24  13 2.30
  75  0.343  0.970  0.090-   2 2.19   9 2.22  22 2.24  14 2.30
  76  0.593  0.470  0.090-   3 2.19  23 2.22  10 2.22  15 2.30
  77  0.843  0.970  0.090-   4 2.19  11 2.22  24 2.25  16 2.30
  78  0.034  0.229  0.106-   1 2.10  25 2.10  16 2.18
  79  0.284  0.729  0.106-   2 2.10  26 2.10  13 2.18
  80  0.534  0.229  0.106-  27 2.09   3 2.10  14 2.18
  81  0.784  0.729  0.106-  28 2.08   4 2.10  15 2.18
  82  0.045  0.833  0.134-   5 2.07  32 2.13  17 2.17
  83  0.296  0.334  0.133-   6 2.06  29 2.10  18 2.17
  84  0.546  0.834  0.133-   7 2.06  30 2.09  19 2.18
  85  0.795  0.333  0.134-   8 2.08  31 2.11  20 2.18
  86  0.231  0.094  0.146-   9 2.17  29 2.23  22 2.27  17 2.31
  87  0.481  0.594  0.146-  10 2.17  30 2.22  23 2.29  18 2.30
  88  0.732  0.094  0.147-  11 2.18  24 2.26  19 2.27  31 2.30
  89  0.981  0.594  0.147-  12 2.18  32 2.23  21 2.27  20 2.33
  90  0.225  0.552  0.160-  21 2.18  18 2.23  13 2.25  26 2.29
  91  0.476  0.052  0.161-  22 2.19  19 2.23  14 2.26  27 2.29
  92  0.725  0.552  0.160-  23 2.18  20 2.23  15 2.26  28 2.30
  93  0.975  0.053  0.161-  24 2.18  17 2.23  16 2.26  25 2.30
  94  0.214  0.891  0.181-  17 2.09  26 2.10  22 2.18
  95  0.464  0.390  0.180-  18 2.09  27 2.11  23 2.17
  96  0.715  0.890  0.181-  19 2.09  28 2.11  24 2.18
  97  0.965  0.390  0.182-  20 2.10  25 2.10  21 2.17
  98  0.129  0.335  0.193-  29 2.10  21 2.11  25 2.19
  99  0.378  0.835  0.193-  30 2.08  22 2.11  26 2.20
 100  0.628  0.335  0.194-  23 2.08  31 2.12  27 2.18
 101  0.879  0.837  0.194-  24 2.11  32 2.11  28 2.16
 102  0.117  0.671  0.215-  26 2.18  32 2.21  21 2.29  33 2.41
 103  0.367  0.170  0.213-  27 2.19  29 2.21  22 2.26  34 2.43
 104  0.618  0.671  0.213-  35 2.20  28 2.23  30 2.25  23 2.31
 105  0.868  0.171  0.216-  25 2.21  31 2.21  24 2.28  36 2.39
 106  0.115  0.131  0.224-  37 2.16  17 2.20  29 2.29  25 2.29
 107  0.363  0.631  0.224-  38 2.15  18 2.19  26 2.29  30 2.30
 108  0.615  0.132  0.225-  39 2.15  19 2.20  27 2.29  31 2.32
 109  0.864  0.632  0.225-  20 2.20  28 2.24  32 2.27  40 2.28
 110  0.047  0.894  0.240-  41 2.05  17 2.13  32 2.19
 111  0.297  0.396  0.241-  42 2.06  18 2.13  29 2.21
 112  0.547  0.894  0.240-  43 2.05  19 2.14  30 2.20
 113  0.795  0.394  0.241-  20 2.11  31 2.12  44 2.26
 114  0.067  0.493  0.269-  45 2.07  21 2.09  33 2.21
 115  0.315  0.993  0.268-  46 2.07  22 2.10  34 2.20
 116  0.560  0.494  0.268-  47 2.06  23 2.11  35 2.20
 117  0.812  0.995  0.269-  48 2.05  24 2.10  36 2.23
 118  0.250  0.750  0.283-  38 2.15  26 2.20  46 2.30  33 2.38
 119  0.497  0.250  0.281-  27 2.19  39 2.20  47 2.24  34 2.35
 120  0.750  0.749  0.283-  40 2.19  28 2.22  35 2.26  48 2.32
 121  0.004  0.252  0.282-  37 2.14  25 2.18  45 2.30  36 2.41
 122  0.245  0.214  0.291-  37 2.16  29 2.20  34 2.24  42 2.29
 123  0.493  0.713  0.290-  38 2.17  35 2.20  30 2.20  43 2.30
 124  0.744  0.216  0.296-  39 2.17  31 2.24  44 2.27  36 2.28
 125  0.994  0.713  0.293-  40 2.18  32 2.21  33 2.25  41 2.29
 126  0.238  0.555  0.329-  42 2.14  33 2.16  38 2.16
 127  0.486  0.053  0.327-  34 2.14  43 2.14  39 2.16
 128  0.730  0.552  0.328-  35 2.16  44 2.25  40 2.26  49 2.34
 129  0.989  0.056  0.329-  36 2.13  41 2.16  37 2.17
 130  0.146  0.004  0.331-  37 2.09  46 2.15  41 2.20
 131  0.397  0.505  0.334-  38 2.10  47 2.16  42 2.24
 132  0.643  0.002  0.334-  39 2.11  48 2.17  43 2.18
 133  0.895  0.501  0.328-  40 2.10  45 2.16  44 2.17
 134  0.137  0.322  0.351-  37 2.17  42 2.26  45 2.30
 135  0.385  0.822  0.350-  38 2.17  43 2.26  46 2.30
 136  0.620  0.316  0.352-  39 2.11  47 2.14  44 2.51
 137  0.889  0.834  0.347-  41 2.19  40 2.22  48 2.25
 138  0.131  0.800  0.356-  41 2.15  33 2.18  46 2.28
 139  0.380  0.300  0.355-  42 2.13  34 2.19  47 2.25
 140  0.627  0.795  0.354-  43 2.14  35 2.15  48 2.37
 141  0.889  0.295  0.356-  44 2.13  36 2.13  45 2.23
 142  0.065  0.544  0.375-  33 2.02  45 2.03
 143  0.315  0.044  0.375-  46 2.03  34 2.03
 144  0.574  0.548  0.375-  49 2.12  35 2.17  47 2.20
 145  0.815  0.044  0.375-  48 2.01  36 2.03
 146  0.808  0.667  0.406- 148 0.97  49 2.20  40 2.23
 147  0.757  0.420  0.418-  49 1.94  44 2.08
 148  0.836  0.726  0.429- 146 0.97
 149  0.449  0.538  0.464- 164 1.10
 150  0.537  0.714  0.448- 163 1.10
 151  0.345  0.732  0.502- 162 1.10
 152  0.515  0.760  0.515- 163 1.11
 153  0.299  0.610  0.469- 162 1.10
 154  0.372  0.707  0.432- 162 1.10
 155  0.602  0.495  0.476-  49 1.94
 156  0.428  0.573  0.534- 164 1.10
 157  0.597  0.579  0.547- 165 1.09
 158  0.744  0.668  0.534- 166 1.10
 159  0.776  0.834  0.473- 167 1.10
 160  0.686  0.870  0.514- 167 1.10
 161  0.666  0.821  0.446- 167 1.10
 162  0.359  0.666  0.473- 153 1.10 151 1.10 154 1.10 164 1.53
 163  0.525  0.685  0.491- 150 1.10 152 1.11 165 1.51 164 1.53
 164  0.439  0.608  0.492- 149 1.10 156 1.10 162 1.53 163 1.53
 165  0.607  0.640  0.514- 157 1.09 166 1.39 163 1.51  49 2.80
 166  0.691  0.694  0.507- 158 1.10 165 1.39 167 1.51  49 2.67
 167  0.706  0.810  0.483- 161 1.10 159 1.10 160 1.10 166 1.51
 
  Warning from LATTYP: Monoclinic adjustement (A1->A3, A2->A1, A3->A2)!
  Warning from LATTYP: Got some problem with cell dimensions!
  Tried to take original basis but could not verify dimensions!
  LATTYP: Found a simple monoclinic cell.
 ALAT       =    18.5584556648
 B/A-ratio  =     1.2917238965
 C/A-ratio  =     1.7011970181
 COS(beta)  =    -0.9496615564
  
  Lattice vectors:
  
 A1 = ( -14.0305058395, -12.1474763861,   0.0000000000)
 A2 = (   0.0000000000,   0.0000000000, -23.9724006653)
 A3 = (  29.1411063110,  12.1474763861,   0.0000000000)


Analysis of symmetry for initial positions (statically):
=====================================================================
 Subroutine PRICEL returns:
 Original cell was already a primitive cell.
 

 Routine SETGRP: Setting up the symmetry group for a 
 simple monoclinic supercell.


 Subroutine GETGRP returns: Found  1 space group operations
 (whereof  1 operations were pure point group operations)
 out of a pool of  4 trial point group operations.


The static configuration has the point symmetry C_1 .


Analysis of symmetry for dynamics (positions and initial velocities):
=====================================================================
 Subroutine PRICEL returns:
 Original cell was already a primitive cell.
 

 Routine SETGRP: Setting up the symmetry group for a 
 simple monoclinic supercell.


 Subroutine GETGRP returns: Found  1 space group operations
 (whereof  1 operations were pure point group operations)
 out of a pool of  4 trial point group operations.


The dynamic configuration has the point symmetry C_1 .


Analysis of constrained symmetry for selective dynamics:
=====================================================================
 Subroutine PRICEL returns:
 Original cell was already a primitive cell.
 

 Routine SETGRP: Setting up the symmetry group for a 
 simple monoclinic supercell.


 Subroutine GETGRP returns: Found  1 space group operations
 (whereof  1 operations were pure point group operations)
 out of a pool of  4 trial point group operations.


The constrained configuration has the point symmetry C_1 .


Analysis of structural, dynamic, and magnetic symmetry:
=====================================================================
 Subroutine PRICEL returns:
 Original cell was already a primitive cell.
 

 Routine SETGRP: Setting up the symmetry group for a 
 simple monoclinic supercell.


 Subroutine GETGRP returns: Found  1 space group operations
 (whereof  1 operations were pure point group operations)
 out of a pool of  4 trial point group operations.


The magnetic configuration has the point symmetry C_1 .


 Subroutine INISYM returns: Found  1 space group operations
 (whereof  1 operations are pure point group operations),
 and found     1 'primitive' translations

 
 
 KPOINTS: Monkhorst Pack                          

Automatic generation of k-mesh.
Space group operators:
 irot       det(A)        alpha          n_x          n_y          n_z        tau_x        tau_y        tau_z
    1     1.000000     0.000000     1.000000     0.000000     0.000000     0.000000     0.000000     0.000000
 
 Subroutine IBZKPT returns following result:
 ===========================================
 
 Found      2 irreducible k-points:
 
 Following reciprocal coordinates:
            Coordinates               Weight
  0.250000  0.250000  0.000000      2.000000
 -0.250000  0.250000  0.000000      2.000000
 
 Following cartesian coordinates:
            Coordinates               Weight
  0.016545  0.022051  0.000000      2.000000
 -0.016545  0.019109  0.000000      2.000000
 


--------------------------------------------------------------------------------------------------------




 Dimension of arrays:
   k-points           NKPTS =      2   k-points in BZ     NKDIM =      2   number of bands    NBANDS=    640
   number of dos      NEDOS =    301   number of ions     NIONS =    167
   non local maximal  LDIM  =      6   non local SUM 2l+1 LMDIM =     18
   total plane-waves  NPLWV = 823200
   max r-space proj   IRMAX =   2561   max aug-charges    IRDMAX=   7978
   dimension x,y,z NGX =    84 NGY =   70 NGZ =  140
   dimension x,y,z NGXF=   168 NGYF=  140 NGZF=  280
   support grid    NGXF=   168 NGYF=  140 NGZF=  280
   ions per type =              49  98  14   6
   NGX,Y,Z   is equivalent  to a cutoff of   9.24,  9.54,  9.71 a.u.
   NGXF,Y,Z  is equivalent  to a cutoff of  18.48, 19.08, 19.42 a.u.

 SYSTEM =  mZrO2_n111_dimer                        
 POSCAR =  Zr   O    H    C                        

 Startparameter for this run:
   NWRITE =      2    write-flag & timer
   PREC   = normal    normal or accurate (medium, high low for compatibility)
   ISTART =      1    job   : 0-new  1-cont  2-samecut
   ICHARG =      1    charge: 1-file 2-atom 10-const
   ISPIN  =      2    spin polarized calculation?
   LNONCOLLINEAR =      F non collinear calculations
   LSORBIT =      F    spin-orbit coupling
   INIWAV =      1    electr: 0-lowe 1-rand  2-diag
   LASPH  =      F    aspherical Exc in radial PAW
   METAGGA=      F    non-selfconsistent MetaGGA calc.

 Electronic Relaxation 1
   ENCUT  =  500.0 eV  36.75 Ry    6.06 a.u.  27.55 22.24 43.71*2*pi/ulx,y,z
   ENINI  =  500.0     initial cutoff
   ENAUG  =  644.9 eV  augmentation charge cutoff
   NELM   =    300;   NELMIN=  2; NELMDL=  0     # of ELM steps 
   EDIFF  = 0.1E-05   stopping-criterion for ELM
   LREAL  =      T    real-space projection
   NLSPLINE    = F    spline interpolate recip. space projectors
   LCOMPAT=      F    compatible to vasp.4.4
   GGA_COMPAT  = T    GGA compatible to vasp.4.4-vasp.4.6
   LMAXPAW     = -100 max onsite density
   LMAXMIX     =    2 max onsite mixed and CHGCAR
   VOSKOWN=      0    Vosko Wilk Nusair interpolation
   ROPT   =   -0.00050  -0.00050  -0.00050  -0.00050
 Ionic relaxation
   EDIFFG = -.5E-01   stopping-criterion for IOM
   NSW    =      0    number of steps for IOM
   NBLOCK =      1;   KBLOCK =      1    inner block; outer block 
   IBRION =     -1    ionic relax: 0-MD 1-quasi-New 2-CG
   NFREE  =      0    steps in history (QN), initial steepest desc. (CG)
   ISIF   =      2    stress and relaxation
   IWAVPR =     10    prediction:  0-non 1-charg 2-wave 3-comb
   ISYM   =      2    0-nonsym 1-usesym 2-fastsym
   LCORR  =      T    Harris-Foulkes like correction to forces

   POTIM  = 0.0000    time-step for ionic-motion
   TEIN   =    0.0    initial temperature
   TEBEG  =    0.0;   TEEND  =   0.0 temperature during run
   SMASS  =  -3.00    Nose mass-parameter (am)
   estimated Nose-frequenzy (Omega)   =  0.10E-29 period in steps =  0.00 mass=  -0.522E-26a.u.
   SCALEE = 1.0000    scale energy and forces
   NPACO  =    256;   APACO  = 16.0  distance and # of slots for P.C.
   PSTRESS=    0.0 pullay stress

  Mass of Ions in am
   POMASS =  91.22 16.00  1.00 12.01
  Ionic Valenz
   ZVAL   =  12.00  6.00  1.00  4.00
  Atomic Wigner-Seitz radii
   RWIGS  =  -1.00 -1.00 -1.00 -1.00
  virtual crystal weights 
   VCA    =   1.00  1.00  1.00  1.00
   NELECT =    1214.0000    total number of electrons
   NUPDOWN=      -1.0000    fix difference up-down

 DOS related values:
   EMIN   =  10.00;   EMAX   =-10.00  energy-range for DOS
   EFERMI =   0.00
   ISMEAR =     0;   SIGMA  =   0.05  broadening in eV -4-tet -1-fermi 0-gaus

 Electronic relaxation 2 (details)
   IALGO  =     38    algorithm
   LDIAG  =      T    sub-space diagonalisation (order eigenvalues)
   LSUBROT=      F    optimize rotation matrix (better conditioning)
   TURBO    =      0    0=normal 1=particle mesh
   IRESTART =      0    0=no restart 2=restart with 2 vectors
   NREBOOT  =      0    no. of reboots
   NMIN     =      0    reboot dimension
   EREF     =   0.00    reference energy to select bands
   IMIX   =      4    mixing-type and parameters
     AMIX     =   0.40;   BMIX     =  1.00
     AMIX_MAG =   1.60;   BMIX_MAG =  1.00
     AMIN     =   0.10
     WC   =   100.;   INIMIX=   1;  MIXPRE=   1;  MAXMIX= -45

 Intra band minimization:
   WEIMIN = 0.0000     energy-eigenvalue tresh-hold
   EBREAK =  0.39E-09  absolut break condition
   DEPER  =   0.30     relativ break condition  

   TIME   =   0.40     timestep for ELM

  volume/ion in A,a.u.               =      26.35       177.81
  Fermi-wavevector in a.u.,A,eV,Ry     =   1.065748  2.013972 15.453760  1.135819
  Thomas-Fermi vector in A             =   2.201310
 
 Write flags
   LWAVE        =      T    write WAVECAR
   LDOWNSAMPLE  =      F    k-point downsampling of WAVECAR
   LCHARG       =      T    write CHGCAR
   LVTOT        =      F    write LOCPOT, total local potential
   LVHAR        =      F    write LOCPOT, Hartree potential only
   LELF         =      F    write electronic localiz. function (ELF)
   LORBIT       =      0    0 simple, 1 ext, 2 COOP (PROOUT), +10 PAW based schemes


 Dipole corrections
   LMONO  =      F    monopole corrections only (constant potential shift)
   LDIPOL =      F    correct potential (dipole corrections)
   IDIPOL =      3    1-x, 2-y, 3-z, 4-all directions 
   EPSILON=  1.0000000 bulk dielectric constant

 LDA+U is selected, type is set to LDAUTYPE =  2
   angular momentum for each species LDAUL =     2   -1   -1   -1
   U (eV)           for each species LDAUU =   4.0  0.0  0.0  0.0
   J (eV)           for each species LDAUJ =   0.0  0.0  0.0  0.0
 Exchange correlation treatment:
   GGA     =    --    GGA type
   LEXCH   =     8    internal setting for exchange type
   VOSKOWN=      0    Vosko Wilk Nusair interpolation
   LHFCALC =     F    Hartree Fock is set to
   LHFONE  =     F    Hartree Fock one center treatment
   AEXX    =    0.0000 exact exchange contribution

 Linear response parameters
   LEPSILON=     F    determine dielectric tensor
   LRPA    =     F    only Hartree local field effects (RPA)
   LNABLA  =     F    use nabla operator in PAW spheres
   LVEL    =     F    velocity operator in full k-point grid
   LINTERFAST=   F  fast interpolation
   KINTER  =     0    interpolate to denser k-point grid
   CSHIFT  =0.1000    complex shift for real part using Kramers Kronig
   OMEGAMAX=  -1.0    maximum frequency
   DEG_THRESHOLD= 0.2000000E-02 threshold for treating states as degnerate
   RTIME   =   -0.100 relaxation time in fs
  (WPLASMAI=    0.000 imaginary part of plasma frequency in eV, 0.658/RTIME)
   DFIELD  = 0.0000000 0.0000000 0.0000000 field for delta impulse in time
 
 Orbital magnetization related:
   ORBITALMAG=     F  switch on orbital magnetization
   LCHIMAG   =     F  perturbation theory with respect to B field
   DQ        =  0.001000  dq finite difference perturbation B field
   LLRAUG    =     F  two centre corrections for induced B field



--------------------------------------------------------------------------------------------------------


 Static calculation
 charge density and potential will be updated during run
 spin polarized calculation
 Variant of blocked Davidson
 Davidson routine will perform the subspace rotation
 perform sub-space diagonalisation
    after iterative eigenvector-optimisation
 modified Broyden-mixing scheme, WC =      100.0
 initial mixing is a Kerker type mixing with AMIX =  0.4000 and BMIX =      1.0000
 Hartree-type preconditioning will be used
 using additional bands           33
 real space projection scheme for non local part
 use partial core corrections
 calculate Harris-corrections to forces 
   (improved forces if not selfconsistent)
 use gradient corrections 
 use of overlap-Matrix (Vanderbilt PP)
 Gauss-broadening in eV      SIGMA  =   0.05


--------------------------------------------------------------------------------------------------------


  energy-cutoff  :      500.00
  volume of cell :     4400.27
      direct lattice vectors                 reciprocal lattice vectors
    15.110600471  0.000000000  0.000000000     0.066178707  0.005884289  0.000000000
    -1.080094632 12.147476386  0.000000000     0.000000000  0.082321625  0.000000000
     0.000000000  0.000000000 23.972400665     0.000000000  0.000000000  0.041714637

  length of vectors
    15.110600471 12.195400238 23.972400665     0.066439793  0.082321625  0.041714637


 
 old parameters found on file WAVECAR:
  energy-cutoff  :      500.00
  volume of cell :     4400.27
      direct lattice vectors                 reciprocal lattice vectors
    15.110600471  0.000000000  0.000000000     0.066178707  0.005884289  0.000000000
    -1.080094632 12.147476386  0.000000000     0.000000000  0.082321625  0.000000000
     0.000000000  0.000000000 23.972400665     0.000000000  0.000000000  0.041714637

  length of vectors

 
 k-points in units of 2pi/SCALE and weight: Monkhorst Pack                          
   0.01654468  0.02205148  0.00000000       0.500
  -0.01654468  0.01910933  0.00000000       0.500
 
 k-points in reciprocal lattice and weights: Monkhorst Pack                          
   0.25000000  0.25000000  0.00000000       0.500
  -0.25000000  0.25000000  0.00000000       0.500
 
 position of ions in fractional coordinates (direct lattice) 
   0.08848000  0.32082999  0.03824000
   0.33847998  0.82083000  0.03824000
   0.58847999  0.32082999  0.03824000
   0.83848001  0.82083000  0.03824000
   0.07020001  0.83354995  0.04873000
   0.32019998  0.33355000  0.04873000
   0.57020004  0.83354995  0.04873000
   0.82020001  0.33355000  0.04873000
   0.23783000  0.06778000  0.05703000
   0.48783004  0.56778001  0.05703000
   0.73783001  0.06778000  0.05703000
   0.98782997  0.56778001  0.05703000
   0.21954999  0.58051001  0.06752000
   0.46955000  0.08051000  0.06752000
   0.71954999  0.58051001  0.06752000
   0.96955000  0.08051000  0.06752000
   0.10554062  0.98318688  0.17097382
   0.35576529  0.48374974  0.17104356
   0.60763919  0.98492978  0.17115768
   0.85492722  0.48279965  0.17342995
   0.08864869  0.49491858  0.18260917
   0.33869982  0.99533659  0.18222726
   0.58887549  0.49280310  0.18172734
   0.83859144  0.99614497  0.18270502
   0.00415586  0.23064739  0.19138774
   0.25255263  0.73008536  0.19122957
   0.50351292  0.22928247  0.19083657
   0.75712219  0.73044614  0.19093202
   0.23916462  0.24210761  0.20082903
   0.48750414  0.74307816  0.19948094
   0.74098089  0.24624808  0.20402296
   0.98824615  0.74065793  0.20229706
   0.12185111  0.64163758  0.31415833
   0.37097269  0.14071125  0.31306531
   0.62222924  0.64797786  0.30419247
   0.87379660  0.14083303  0.31416796
   0.10873137  0.16166101  0.31250096
   0.35733474  0.66040361  0.31228747
   0.60581752  0.15971530  0.31334994
   0.85721064  0.66171849  0.31865736
   0.02578511  0.88952555  0.32449530
   0.27452334  0.38916256  0.32532848
   0.52341113  0.88843269  0.32394664
   0.77931207  0.38375864  0.33484476
   0.00935396  0.40772276  0.33591047
   0.25797283  0.90770423  0.33586543
   0.50644699  0.40262968  0.33390198
   0.75901381  0.90927964  0.33611575
   0.69192734  0.54938169  0.42282625
   0.02440000  0.17254999  0.00000000
   0.27439999  0.67255002  0.00000000
   0.52439999  0.17254999  0.00000000
   0.77439999  0.67255002  0.00000000
   0.21455000  0.43156997  0.01581000
   0.46455001  0.93156996  0.01581000
   0.71455008  0.43156997  0.01581000
   0.96455004  0.93156996  0.01581000
   0.20673000  0.89092997  0.02490000
   0.45673000  0.39092998  0.02490000
   0.70672997  0.89092997  0.02490000
   0.95673004  0.39092998  0.02490000
   0.19748000  0.22610000  0.04418000
   0.44748002  0.72610003  0.04418000
   0.69748003  0.22610000  0.04418000
   0.94747999  0.72610003  0.04418000
   0.11054000  0.67523994  0.06158000
   0.36054002  0.17523999  0.06158000
   0.61053998  0.67523994  0.06158000
   0.86053999  0.17523999  0.06158000
   0.10129000  0.01041000  0.08086000
   0.35129000  0.51041000  0.08086000
   0.60128997  0.01041000  0.08086000
   0.85128994  0.51041000  0.08086000
   0.09348000  0.46976000  0.08995000
   0.34348000  0.96975995  0.08995000
   0.59348001  0.46976000  0.08995000
   0.84347996  0.96975995  0.08995000
   0.03362000  0.22878000  0.10576000
   0.28361999  0.72877998  0.10576000
   0.53361997  0.22878000  0.10576000
   0.78362002  0.72877998  0.10576000
   0.04509448  0.83299669  0.13367948
   0.29563510  0.33381223  0.13344054
   0.54630180  0.83427771  0.13331469
   0.79532499  0.33308016  0.13397265
   0.23124023  0.09354989  0.14631492
   0.48129509  0.59361812  0.14647367
   0.73163490  0.09398767  0.14692769
   0.98146278  0.59354401  0.14695939
   0.22494317  0.55228616  0.16037250
   0.47595158  0.05165051  0.16063726
   0.72486376  0.55221933  0.16049442
   0.97491088  0.05270737  0.16069772
   0.21436672  0.89054331  0.18113125
   0.46396141  0.38954652  0.18007799
   0.71491977  0.88991186  0.18130806
   0.96467747  0.39029784  0.18178224
   0.12944244  0.33526094  0.19262758
   0.37842897  0.83537412  0.19309851
   0.62774646  0.33511013  0.19440715
   0.87924952  0.83681526  0.19398353
   0.11714492  0.67139823  0.21477784
   0.36679988  0.17012202  0.21289689
   0.61803942  0.67123108  0.21313938
   0.86769877  0.17098643  0.21596688
   0.11485635  0.13090498  0.22394965
   0.36321043  0.63105893  0.22381829
   0.61466059  0.13170664  0.22513685
   0.86358562  0.63229915  0.22497717
   0.04672457  0.89401969  0.23987154
   0.29678450  0.39570979  0.24057122
   0.54695961  0.89392600  0.23962328
   0.79538335  0.39442426  0.24139653
   0.06703288  0.49298500  0.26866206
   0.31461919  0.99309056  0.26836724
   0.56018452  0.49391658  0.26775907
   0.81157554  0.99463575  0.26859128
   0.25035785  0.75036009  0.28253243
   0.49666397  0.25027024  0.28139705
   0.74989359  0.74942625  0.28296332
   0.00390199  0.25166467  0.28161011
   0.24500453  0.21442071  0.29123830
   0.49328772  0.71299914  0.28967053
   0.74365823  0.21553968  0.29629081
   0.99351538  0.71263509  0.29324405
   0.23796750  0.55492452  0.32877542
   0.48571921  0.05338282  0.32678788
   0.72987145  0.55196118  0.32798216
   0.98862513  0.05598161  0.32860715
   0.14613741  0.00426567  0.33057834
   0.39686319  0.50547022  0.33386887
   0.64284206  0.00153845  0.33369634
   0.89535643  0.50119641  0.32826397
   0.13676406  0.32181817  0.35145944
   0.38548355  0.82160225  0.34990551
   0.62021221  0.31581501  0.35218334
   0.88887562  0.83401853  0.34696583
   0.13127628  0.80030229  0.35627823
   0.38017626  0.30004952  0.35535953
   0.62706195  0.79482364  0.35399536
   0.88931817  0.29511512  0.35635205
   0.06523898  0.54443449  0.37493798
   0.31527773  0.04353484  0.37457185
   0.57428280  0.54800103  0.37472543
   0.81514209  0.04354282  0.37506442
   0.80756119  0.66714690  0.40634106
   0.75730925  0.42014354  0.41808474
   0.83638698  0.72584535  0.42898016
   0.44857115  0.53772488  0.46393834
   0.53650651  0.71445583  0.44760545
   0.34492177  0.73212958  0.50216200
   0.51462146  0.76006465  0.51516732
   0.29853208  0.60979450  0.46927181
   0.37176280  0.70738704  0.43247905
   0.60171196  0.49472148  0.47578999
   0.42790304  0.57339283  0.53385077
   0.59710051  0.57923399  0.54679063
   0.74392758  0.66810648  0.53359534
   0.77568166  0.83432515  0.47336374
   0.68592208  0.87024290  0.51413237
   0.66585042  0.82084113  0.44556017
   0.35904464  0.66624099  0.47301318
   0.52476931  0.68507715  0.49071332
   0.43942329  0.60767669  0.49165171
   0.60735467  0.64013637  0.51369082
   0.69123655  0.69422190  0.50652478
   0.70555408  0.80975862  0.48323783
 
 position of ions in cartesian coordinates  (Angst):
   0.99045921  3.89727473  0.91670460
   4.22806168  9.97101307  0.91670460
   8.54575920  3.89727473  0.91670460
  11.78336239  9.97101307  0.91670460
   0.16045142 10.12552833  1.16817511
   4.47814847  4.05179071  1.16817511
   7.71575212 10.12552833  1.16817511
  12.03344917  4.05179071  1.16817511
   3.52054525  0.82335597  1.36714601
   6.75814868  6.89709425  1.36714601
  11.07584571  0.82335597  1.36714601
  14.31344795  6.89709425  1.36714601
   2.69052649  7.05173159  1.61861647
   7.00822400  0.97799331  1.61861647
  10.24582672  7.05173159  1.61861647
  14.56352424  0.97799331  1.61861647
   0.53284723 11.94323940  4.09865293
   4.85333163  5.87633852  4.10032466
   8.11797561 11.96441126  4.10306044
  12.39699430  5.86479735  4.15753233
   0.80497599  6.01201179  4.37758027
   4.04289991 12.09082769  4.36842495
   8.36598823  5.98631403  4.35644067
  11.59568943 12.10064751  4.37987787
  -0.18632349  2.80178368  4.58802351
   3.02766065  8.86869470  4.58423193
   7.36073582  2.78520338  4.57481075
  10.65161990  8.87307723  4.57709891
   3.35242194  2.94099651  4.81435390
   6.56388557  9.02652435  4.78203706
  10.93069502  2.99129271  4.89092004
  14.13301211  8.99712475  4.84954625
   1.14821408  7.79427734  7.53112934
   5.45363860  1.70928656  7.50492706
   8.70238008  7.87129571  7.29222384
  13.05147837  1.71076593  7.53136022
   1.46838711  1.96377328  7.49139827
   4.68624409  8.02223725  7.48628038
   8.98175887  1.94013785  7.51175037
  12.23824891  8.03820971  7.63898195
  -0.57114322 10.80549063  7.77893139
   3.72788009  4.72734304  7.79890468
   6.94946516 10.79221513  7.76577861
  11.36137772  4.66169904  8.02703263
  -0.29903521  4.95280262  8.05258048
   2.91771788 11.02631573  8.05150076
   7.21783995  4.89093459  8.00443206
  10.48704637 11.04545296  8.05750153
   9.86205342  6.67360108 10.13616016
   0.18232835  2.09604693  0.00000000
   3.41993094  8.16978550  0.00000000
   7.73762846  2.09604693  0.00000000
  10.97523117  8.16978550  0.00000000
   2.77584291  5.24248600  0.37900365
   6.01344586 11.31622410  0.37900365
  10.33114434  5.24248600  0.37900365
  13.56874656 11.31622410  0.37900365
   2.16152573 10.82255077  0.59691280
   6.47922326  4.74881268  0.59691280
   9.71682548 10.82255077  0.59691280
  14.03452396  4.74881268  0.59691280
   2.73983193  2.74654436  1.05910064
   5.97743511  8.82028293  1.05910064
  10.29513263  2.74654436  1.05910064
  13.53273487  8.82028293  1.05910064
   0.94100273  8.20246124  1.47622036
   5.25870037  2.12872362  1.47622036
   8.49630260  8.20246124  1.47622036
  12.81400013  2.12872362  1.47622036
   1.51930892  0.12645522  1.93840825
   4.75691175  6.20019341  1.93840825
   9.07460880  0.12645522  1.93840825
  12.31221104  6.20019341  1.93840825
   0.90515363  5.70639848  2.15631746
   4.14275646 11.78013610  2.15631746
   8.46045399  5.70639848  2.15631746
  11.69805622 11.78013610  2.15631746
   0.26091433  2.77909971  2.53532100
   3.49851704  8.85283756  2.53532100
   7.81621408  2.77909971  2.53532100
  11.05381775  8.85283756  2.53532100
  -0.21831054 10.11880768  3.20461797
   4.10667514  4.05497621  3.19889010
   7.35384932 10.13436883  3.19587319
  11.65808014  4.04608334  3.21164615
   3.39313604  1.13639503  3.50751989
   6.63149411  7.21096211  3.51132561
  10.95392704  1.14171303  3.52220956
  14.18940818  7.21006182  3.52296943
   2.80250511  6.70888308  3.84451392
   7.13612670  0.62742331  3.85086067
  10.35667761  6.70807123  3.84743656
  14.67455979  0.64026156  3.85231004
   2.27733877 10.81785388  4.34215098
   6.58998833  4.73200718  4.31690170
   9.84167793 10.81018325  4.34638938
  14.15529723  4.74113375  4.35775675
   1.59383941  4.07257434  4.61774543
   4.81600587 10.14768737  4.62903480
   9.12367525  4.07074233  4.66040618
  12.38214849 10.16519362  4.65025091
   1.04495638  8.15579416  5.14874036
   5.35881859  2.06655318  5.10364962
   8.61395370  8.15376366  5.10946250
  12.92676796  2.07705361  5.17724467
   1.59415868  1.59016513  5.36861062
   4.80672439  7.66577340  5.36546163
   9.14563500  1.59990330  5.39707073
  12.36635437  7.68083901  5.39324297
  -0.25958956 10.86008306  5.75029670
   4.05718797  4.80687532  5.76706966
   7.29936354 10.85894497  5.74434528
  11.59270455  4.79125942  5.78685433
   0.48043667  5.98852371  6.44047462
   3.68145310 12.06354409  6.43340696
   7.93124786  5.99983994  6.41882767
  11.18909304 12.08231423  6.43877777
   2.97259761  9.11498144  6.77298050
   7.23457530  3.04015185  6.74576286
  10.52189123  9.10363770  6.78331008
  -0.21286021  3.05709061  6.75087050
   3.47057095  2.60467055  6.98168126
   6.68376705  8.66114025  6.94409808
  11.00431914  2.61826320  7.10280195
  14.24290069  8.65671794  7.02976383
   2.99646085  6.74093249  7.88153602
   7.28185045  0.64846652  7.83388989
  10.43262552  6.70493543  7.86251977
  14.87825395  0.68003533  7.87750233
   2.20361673  0.05181709  7.92475636
   5.45088543  6.14018761  8.00363840
   9.71206784  0.01868825  7.99950229
  12.98803381  6.08827158  7.86927551
   1.71899303  3.90927859  8.42532640
   4.93747974  9.98039397  8.38807510
   9.03066886  3.83635538  8.44268025
  12.53062549 10.13122041  8.31760391
   1.11926123  9.72165314  8.54084450
   5.42060969  3.64484446  8.51882102
   8.61679786  9.65510136  8.48611854
  13.11937931  3.58490389  8.54261412
   0.39775943  6.61350505  8.98816341
   4.71701407  0.52883840  8.97938640
   8.08586504  6.65682960  8.98306807
  12.27025613  0.52893539  8.99119452
  11.48215267  8.10415124  9.74097058
  10.98960271  5.10368368 10.02249494
  11.85432785  8.81718923 10.28368432
   6.19738573  6.53200030 11.12171573
   7.33525561  8.67883531 10.73017721
   4.42120583  8.89352681 12.03802874
   6.95529758  9.23286738 12.34979751
   3.85236323  7.40746425 11.24957182
   4.85351413  8.59296738 10.36756100
   8.55788304  6.00961748 11.40582834
   5.84655342  6.96527587 12.79768460
   8.39691968  7.03623118 13.10788405
  10.51957426  8.11580765 12.79156136
  10.81986561 10.13494501 11.34766529
   9.42474989 10.57125505 12.32498728
   9.17481351  9.97114820 10.68114693
   4.70577679  8.09314670 11.33926146
   7.18963116  8.32195850 11.76357641
   5.98360146  7.38173825 11.78607183
   8.48608587  7.77604140 12.31440204
   9.69517394  8.43304418 12.14261494
   9.78672986  9.83652377 11.58437093
 


--------------------------------------------------------------------------------------------------------


 k-point  1 :   0.2500 0.2500 0.0000  plane waves:  111683
 k-point  2 :  -0.2500 0.2500 0.0000  plane waves:  111725

 maximum and minimum number of plane-waves per node :      7001     6957

 maximum number of plane-waves:    111725
 maximum index in each direction: 
   IXMAX=   27   IYMAX=   21   IZMAX=   43
   IXMIN=  -27   IYMIN=  -22   IZMIN=  -43


 real space projection operators:
  total allocation   :      22454.39 KBytes
  max/ min on nodes  :       1637.16       1294.13


 parallel 3D FFT for wavefunctions:
    minimum data exchange during FFTs selected (reduces bandwidth)
 parallel 3D FFT for charge:
    minimum data exchange during FFTs selected (reduces bandwidth)


 total amount of memory used by VASP MPI-rank0    92406. kBytes
=======================================================================

   base      :      30000. kBytes
   nonlr-proj:       9143. kBytes
   fftplans  :       4220. kBytes
   grid      :      12288. kBytes
   one-center:        342. kBytes
   wavefun   :      36413. kBytes
 
     INWAV:  cpu time   37.3568: real time   37.3699
 Broyden mixing: mesh for mixing (old mesh)
   NGX = 55   NGY = 45   NGZ = 87
  (NGX  =168   NGY  =140   NGZ  =280)
  gives a total of 215325 points

 initial charge density was supplied:
 number of electron    1214.0000077 magnetization      -0.0000000
 keeping initial charge density in first step


--------------------------------------------------------------------------------------------------------


 Maximum index for non-local projection operator          420
 Maximum index for augmentation-charges          476 (set IRDMAX)


--------------------------------------------------------------------------------------------------------


 First call to EWALD:  gamma=   0.108
 Maximum number of real-space cells 3x 4x 2
 Maximum number of reciprocal cells 3x 2x 4

    FEWALD:  cpu time    0.0311: real time    0.0310


--------------------------------------- Iteration      1(   1)  ---------------------------------------


    POTLOK:  cpu time    0.4547: real time    0.4769
    SETDIJ:  cpu time    0.0779: real time    0.0782
     EDDAV:  cpu time   25.4162: real time   25.4078
       DOS:  cpu time    0.0044: real time    0.0045
    CHARGE:  cpu time    1.0364: real time    1.0365
    MIXING:  cpu time    0.0206: real time    0.0217
    --------------------------------------------
      LOOP:  cpu time   27.0106: real time   27.0258

 eigenvalue-minimisations  :  6304
 total energy-change (2. order) :-0.1377408E+04  (-0.1356926E+00)
 number of electron    1214.0000076 magnetization      -0.0000000
 augmentation part       74.0735853 magnetization       0.0000009

 Broyden mixing:
  rms(total) = 0.95160E-01    rms(broyden)= 0.95080E-01
  rms(prec ) = 0.96433E-01
  weight for this iteration     100.00

 Free energy of the ion-electron system (eV)
  ---------------------------------------------------
  alpha Z        PSCENC =      2166.38705829
  Ewald energy   TEWEN  =    388795.44593241
  -Hartree energ DENC   =   -485964.62071321
  -exchange      EXHF   =         0.00000000
  -V(xc)+E(xc)   XCENC  =      5337.25976465
  PAW double counting   =    130178.40779480  -129501.26331248
  entropy T*S    EENTRO =        -0.00000000
  eigenvalues    EBANDS =    -18744.29101744
  atomic energy  EATOM  =    106355.26625530
  Solvation  Ediel_sol  =         0.00000000
  ---------------------------------------------------
  free energy    TOTEN  =     -1377.40823767 eV

  energy without entropy =    -1377.40823767  energy(sigma->0) =    -1377.40823767


--------------------------------------------------------------------------------------------------------




--------------------------------------- Iteration      1(   2)  ---------------------------------------


    POTLOK:  cpu time    0.4498: real time    0.4496
    SETDIJ:  cpu time    0.0762: real time    0.0761
     EDDAV:  cpu time   24.9229: real time   24.9027
       DOS:  cpu time    0.0021: real time    0.0021
    CHARGE:  cpu time    1.0363: real time    1.0357
    MIXING:  cpu time    0.0103: real time    0.0132
    --------------------------------------------
      LOOP:  cpu time   26.4976: real time   26.4794

 eigenvalue-minimisations  :  6048
 total energy-change (2. order) :-0.1756208E+01  (-0.1208148E+00)
 number of electron    1214.0000076 magnetization      -0.0000000
 augmentation part       74.0003755 magnetization       0.0000006

 Broyden mixing:
  rms(total) = 0.41273E-01    rms(broyden)= 0.41155E-01
  rms(prec ) = 0.43428E-01
  weight for this iteration     100.00

 eigenvalues of (default mixing * dielectric matrix)
  average eigenvalue GAMMA=   0.7354
  0.7354

 Free energy of the ion-electron system (eV)
  ---------------------------------------------------
  alpha Z        PSCENC =      2166.38705829
  Ewald energy   TEWEN  =    388795.44593241
  -Hartree energ DENC   =   -485965.64853151
  -exchange      EXHF   =         0.00000000
  -V(xc)+E(xc)   XCENC  =      5337.35158477
  PAW double counting   =    130035.08143815  -129356.89105925
  entropy T*S    EENTRO =        -0.00000000
  eigenvalues    EBANDS =    -18746.15712415
  atomic energy  EATOM  =    106355.26625530
  Solvation  Ediel_sol  =         0.00000000
  ---------------------------------------------------
  free energy    TOTEN  =     -1379.16444598 eV

  energy without entropy =    -1379.16444598  energy(sigma->0) =    -1379.16444598


--------------------------------------------------------------------------------------------------------




--------------------------------------- Iteration      1(   3)  ---------------------------------------


    POTLOK:  cpu time    0.4350: real time    0.4499
    SETDIJ:  cpu time    0.0775: real time    0.0774
     EDDAV:  cpu time   26.9951: real time   26.9729
       DOS:  cpu time    0.0020: real time    0.0020
    CHARGE:  cpu time    1.0356: real time    1.0349
    MIXING:  cpu time    0.0079: real time    0.0079
    --------------------------------------------
      LOOP:  cpu time   28.5532: real time   28.5450

 eigenvalue-minimisations  :  6720
 total energy-change (2. order) :-0.9945708E-02  (-0.4360705E-02)
 number of electron    1214.0000077 magnetization      -0.0000000
 augmentation part       74.0324337 magnetization       0.0000002

 Broyden mixing:
  rms(total) = 0.27784E-01    rms(broyden)= 0.27767E-01
  rms(prec ) = 0.28215E-01
  weight for this iteration     100.00

 eigenvalues of (default mixing * dielectric matrix)
  average eigenvalue GAMMA=   0.6929
  0.6929  0.6929

 Free energy of the ion-electron system (eV)
  ---------------------------------------------------
  alpha Z        PSCENC =      2166.38705829
  Ewald energy   TEWEN  =    388795.44593241
  -Hartree energ DENC   =   -485963.30276544
  -exchange      EXHF   =         0.00000000
  -V(xc)+E(xc)   XCENC  =      5337.15734364
  PAW double counting   =    130061.55759763  -129382.61017244
  entropy T*S    EENTRO =        -0.00000000
  eigenvalues    EBANDS =    -18749.07564108
  atomic energy  EATOM  =    106355.26625530
  Solvation  Ediel_sol  =         0.00000000
  ---------------------------------------------------
  free energy    TOTEN  =     -1379.17439169 eV

  energy without entropy =    -1379.17439169  energy(sigma->0) =    -1379.17439169


--------------------------------------------------------------------------------------------------------




--------------------------------------- Iteration      1(   4)  ---------------------------------------


    POTLOK:  cpu time    0.4407: real time    0.4500
    SETDIJ:  cpu time    0.0760: real time    0.0760
     EDDAV:  cpu time   23.5805: real time   23.5600
       DOS:  cpu time    0.0021: real time    0.0021
    CHARGE:  cpu time    1.0347: real time    1.0340
    MIXING:  cpu time    0.0084: real time    0.0091
    --------------------------------------------
      LOOP:  cpu time   25.1424: real time   25.1312

 eigenvalue-minimisations  :  5600
 total energy-change (2. order) :-0.3927381E-04  (-0.2179791E-03)
 number of electron    1214.0000077 magnetization      -0.0000000
 augmentation part       74.0275458 magnetization       0.0000003

 Broyden mixing:
  rms(total) = 0.22408E-01    rms(broyden)= 0.22407E-01
  rms(prec ) = 0.22725E-01
  weight for this iteration     100.00

 eigenvalues of (default mixing * dielectric matrix)
  average eigenvalue GAMMA=   0.6860
  0.7721  0.7721  0.5136

 Free energy of the ion-electron system (eV)
  ---------------------------------------------------
  alpha Z        PSCENC =      2166.38705829
  Ewald energy   TEWEN  =    388795.44593241
  -Hartree energ DENC   =   -485964.12213876
  -exchange      EXHF   =         0.00000000
  -V(xc)+E(xc)   XCENC  =      5337.22674517
  PAW double counting   =    130090.98767862  -129411.99022222
  entropy T*S    EENTRO =        -0.00000000
  eigenvalues    EBANDS =    -18748.37573977
  atomic energy  EATOM  =    106355.26625530
  Solvation  Ediel_sol  =         0.00000000
  ---------------------------------------------------
  free energy    TOTEN  =     -1379.17443096 eV

  energy without entropy =    -1379.17443096  energy(sigma->0) =    -1379.17443096


--------------------------------------------------------------------------------------------------------




--------------------------------------- Iteration      1(   5)  ---------------------------------------


    POTLOK:  cpu time    0.4405: real time    0.4489
    SETDIJ:  cpu time    0.0760: real time    0.0760
     EDDAV:  cpu time   27.3333: real time   27.3075
       DOS:  cpu time    0.0020: real time    0.0020
    CHARGE:  cpu time    1.0313: real time    1.0305
    MIXING:  cpu time    0.0087: real time    0.0087
    --------------------------------------------
      LOOP:  cpu time   28.8918: real time   28.8736

 eigenvalue-minimisations  :  6816
 total energy-change (2. order) :-0.2263580E-05  (-0.2015802E-04)
 number of electron    1214.0000077 magnetization      -0.0000000
 augmentation part       74.0331538 magnetization       0.0000001

 Broyden mixing:
  rms(total) = 0.18872E-01    rms(broyden)= 0.18872E-01
  rms(prec ) = 0.19138E-01
  weight for this iteration     100.00

 eigenvalues of (default mixing * dielectric matrix)
  average eigenvalue GAMMA=   0.7341
  0.9172  0.9172  0.5510  0.5510

 Free energy of the ion-electron system (eV)
  ---------------------------------------------------
  alpha Z        PSCENC =      2166.38705829
  Ewald energy   TEWEN  =    388795.44593241
  -Hartree energ DENC   =   -485964.23693995
  -exchange      EXHF   =         0.00000000
  -V(xc)+E(xc)   XCENC  =      5337.23098270
  PAW double counting   =    130108.82710985  -129429.79137571
  entropy T*S    EENTRO =        -0.00000000
  eigenvalues    EBANDS =    -18748.30345612
  atomic energy  EATOM  =    106355.26625530
  Solvation  Ediel_sol  =         0.00000000
  ---------------------------------------------------
  free energy    TOTEN  =     -1379.17443322 eV

  energy without entropy =    -1379.17443322  energy(sigma->0) =    -1379.17443322


--------------------------------------------------------------------------------------------------------




--------------------------------------- Iteration      1(   6)  ---------------------------------------


    POTLOK:  cpu time    0.4351: real time    0.4452
    SETDIJ:  cpu time    0.0758: real time    0.0758
     EDDAV:  cpu time   26.6231: real time   26.6026
       DOS:  cpu time    0.0021: real time    0.0021
    CHARGE:  cpu time    1.0397: real time    1.0387
    MIXING:  cpu time    0.0092: real time    0.0092
    --------------------------------------------
      LOOP:  cpu time   28.1851: real time   28.1736

 eigenvalue-minimisations  :  6592
 total energy-change (2. order) :-0.1049104E-04  (-0.2522834E-05)
 number of electron    1214.0000077 magnetization      -0.0000000
 augmentation part       74.0344165 magnetization       0.0000002

 Broyden mixing:
  rms(total) = 0.16179E-01    rms(broyden)= 0.16179E-01
  rms(prec ) = 0.16418E-01
  weight for this iteration     100.00

 eigenvalues of (default mixing * dielectric matrix)
  average eigenvalue GAMMA=   0.7961
  1.1281  1.1281  0.5206  0.6018  0.6018

 Free energy of the ion-electron system (eV)
  ---------------------------------------------------
  alpha Z        PSCENC =      2166.38705829
  Ewald energy   TEWEN  =    388795.44593241
  -Hartree energ DENC   =   -485964.40042398
  -exchange      EXHF   =         0.00000000
  -V(xc)+E(xc)   XCENC  =      5337.23945911
  PAW double counting   =    130123.91809656  -129444.86858595
  entropy T*S    EENTRO =        -0.00000000
  eigenvalues    EBANDS =    -18748.16223547
  atomic energy  EATOM  =    106355.26625530
  Solvation  Ediel_sol  =         0.00000000
  ---------------------------------------------------
  free energy    TOTEN  =     -1379.17444372 eV

  energy without entropy =    -1379.17444372  energy(sigma->0) =    -1379.17444372


--------------------------------------------------------------------------------------------------------




--------------------------------------- Iteration      1(   7)  ---------------------------------------


    POTLOK:  cpu time    0.4195: real time    0.4496
    SETDIJ:  cpu time    0.0758: real time    0.0758
     EDDAV:  cpu time   27.0275: real time   27.0037
       DOS:  cpu time    0.0029: real time    0.0029
    CHARGE:  cpu time    1.0667: real time    1.0658
    MIXING:  cpu time    0.0102: real time    0.0102
    --------------------------------------------
      LOOP:  cpu time   28.6027: real time   28.6081

 eigenvalue-minimisations  :  6688
 total energy-change (2. order) :-0.4953676E-05  (-0.2403562E-05)
 number of electron    1214.0000077 magnetization      -0.0000000
 augmentation part       74.0359103 magnetization       0.0000002

 Broyden mixing:
  rms(total) = 0.13028E-01    rms(broyden)= 0.13028E-01
  rms(prec ) = 0.13217E-01
  weight for this iteration     100.00

 eigenvalues of (default mixing * dielectric matrix)
  average eigenvalue GAMMA=   0.8668
  1.3534  1.3534  0.6943  0.6943  0.5526  0.5526

 Free energy of the ion-electron system (eV)
  ---------------------------------------------------
  alpha Z        PSCENC =      2166.38705829
  Ewald energy   TEWEN  =    388795.44593241
  -Hartree energ DENC   =   -485964.48882756
  -exchange      EXHF   =         0.00000000
  -V(xc)+E(xc)   XCENC  =      5337.24476504
  PAW double counting   =    130140.62845172  -129461.56490846
  entropy T*S    EENTRO =        -0.00000000
  eigenvalues    EBANDS =    -18748.09317541
  atomic energy  EATOM  =    106355.26625530
  Solvation  Ediel_sol  =         0.00000000
  ---------------------------------------------------
  free energy    TOTEN  =     -1379.17444867 eV

  energy without entropy =    -1379.17444867  energy(sigma->0) =    -1379.17444867


--------------------------------------------------------------------------------------------------------




--------------------------------------- Iteration      1(   8)  ---------------------------------------


    POTLOK:  cpu time    0.4228: real time    0.4508
    SETDIJ:  cpu time    0.0763: real time    0.0762
     EDDAV:  cpu time   25.5541: real time   25.5331
       DOS:  cpu time    0.0025: real time    0.0025
    CHARGE:  cpu time    1.0591: real time    1.0582
    MIXING:  cpu time    0.0101: real time    0.0101
    --------------------------------------------
      LOOP:  cpu time   27.1249: real time   27.1308

 eigenvalue-minimisations  :  6112
 total energy-change (2. order) :-0.4191650E-05  (-0.1830007E-05)
 number of electron    1214.0000077 magnetization      -0.0000000
 augmentation part       74.0373641 magnetization       0.0000001

 Broyden mixing:
  rms(total) = 0.10667E-01    rms(broyden)= 0.10667E-01
  rms(prec ) = 0.10815E-01
  weight for this iteration     100.00

 eigenvalues of (default mixing * dielectric matrix)
  average eigenvalue GAMMA=   0.9148
  1.5828  1.5828  0.7693  0.7693  0.5325  0.5836  0.5836

 Free energy of the ion-electron system (eV)
  ---------------------------------------------------
  alpha Z        PSCENC =      2166.38705829
  Ewald energy   TEWEN  =    388795.44593241
  -Hartree energ DENC   =   -485964.55360930
  -exchange      EXHF   =         0.00000000
  -V(xc)+E(xc)   XCENC  =      5337.24789180
  PAW double counting   =    130153.31513580  -129474.24218458
  entropy T*S    EENTRO =        -0.00000000
  eigenvalues    EBANDS =    -18748.04093259
  atomic energy  EATOM  =    106355.26625530
  Solvation  Ediel_sol  =         0.00000000
  ---------------------------------------------------
  free energy    TOTEN  =     -1379.17445286 eV

  energy without entropy =    -1379.17445286  energy(sigma->0) =    -1379.17445286


--------------------------------------------------------------------------------------------------------




--------------------------------------- Iteration      1(   9)  ---------------------------------------


    POTLOK:  cpu time    0.4518: real time    0.4517
    SETDIJ:  cpu time    0.0759: real time    0.0759
     EDDAV:  cpu time   20.3582: real time   20.3421
       DOS:  cpu time    0.0022: real time    0.0022
    CHARGE:  cpu time    1.0495: real time    1.0487
    MIXING:  cpu time    0.0108: real time    0.0107
    --------------------------------------------
      LOOP:  cpu time   21.9484: real time   21.9313

 eigenvalue-minimisations  :  4480
 total energy-change (2. order) :-0.4154630E-05  (-0.5563445E-06)
 number of electron    1214.0000077 magnetization      -0.0000000
 augmentation part       74.0383354 magnetization       0.0000001

 Broyden mixing:
  rms(total) = 0.90280E-02    rms(broyden)= 0.90280E-02
  rms(prec ) = 0.91547E-02
  weight for this iteration     100.00

 eigenvalues of (default mixing * dielectric matrix)
  average eigenvalue GAMMA=   1.0384
  1.9982  1.9982  0.9166  0.9166  0.6613  0.6613  0.5776  0.5776

 Free energy of the ion-electron system (eV)
  ---------------------------------------------------
  alpha Z        PSCENC =      2166.38705829
  Ewald energy   TEWEN  =    388795.44593241
  -Hartree energ DENC   =   -485964.59676967
  -exchange      EXHF   =         0.00000000
  -V(xc)+E(xc)   XCENC  =      5337.24947679
  PAW double counting   =    130162.11876054  -129483.04330503
  entropy T*S    EENTRO =        -0.00000000
  eigenvalues    EBANDS =    -18748.00186565
  atomic energy  EATOM  =    106355.26625530
  Solvation  Ediel_sol  =         0.00000000
  ---------------------------------------------------
  free energy    TOTEN  =     -1379.17445702 eV

  energy without entropy =    -1379.17445702  energy(sigma->0) =    -1379.17445702


--------------------------------------------------------------------------------------------------------




--------------------------------------- Iteration      1(  10)  ---------------------------------------


    POTLOK:  cpu time    0.4570: real time    0.4569
    SETDIJ:  cpu time    0.0761: real time    0.0760
     EDDAV:  cpu time   25.8505: real time   25.8260
       DOS:  cpu time    0.0021: real time    0.0021
    CHARGE:  cpu time    1.0571: real time    1.0564
    MIXING:  cpu time    0.0113: real time    0.0113
    --------------------------------------------
      LOOP:  cpu time   27.4541: real time   27.4287

 eigenvalue-minimisations  :  6272
 total energy-change (2. order) :-0.4752612E-05  (-0.1777039E-05)
 number of electron    1214.0000077 magnetization      -0.0000000
 augmentation part       74.0394018 magnetization       0.0000001

 Broyden mixing:
  rms(total) = 0.58238E-02    rms(broyden)= 0.58237E-02
  rms(prec ) = 0.59105E-02
  weight for this iteration     100.00

 eigenvalues of (default mixing * dielectric matrix)
  average eigenvalue GAMMA=   1.1320
[...]
    4.8143269316E-04    8.1386168453E-03    3.5437419842E-03
   -6.7368313379E-04    7.8687435398E-03    5.3417574742E-03
   -2.5573560491E-03    6.9191551974E-04    6.8153217006E-04
    1.2643188400E-03   -3.6029660160E-03   -2.1244096194E-03
    2.0182896790E-02    1.3255712704E-02   -2.0682370280E-02
    4.5409619403E-03    5.7697719679E-03   -3.5334236486E-03
    9.5210556950E-04    1.1461788563E-03   -4.3208308436E-04
    6.2041926486E-05   -9.7463221468E-04    3.7189372756E-03
   -2.0747448168E-02    6.7056324884E-03    5.4307471926E-02
   -8.6834988054E-03    4.5011119190E-03    7.5101157828E-03
   -6.9149767365E-04    1.9762039227E-03   -2.3993759632E-04
    9.3517006630E-03    4.5620863062E-03   -6.7507291421E-03
    5.5784893635E-03    5.7664142748E-04    3.3427833761E-03
    6.1173465200E-02    1.7400024503E-01    8.2585930686E-03
    0.0000000000E+00    0.0000000000E+00    0.0000000000E+00
    0.0000000000E+00    0.0000000000E+00    0.0000000000E+00
    0.0000000000E+00    0.0000000000E+00    0.0000000000E+00
    0.0000000000E+00    0.0000000000E+00    0.0000000000E+00
    0.0000000000E+00    0.0000000000E+00    0.0000000000E+00
    0.0000000000E+00    0.0000000000E+00    0.0000000000E+00
    0.0000000000E+00    0.0000000000E+00    0.0000000000E+00
    0.0000000000E+00    0.0000000000E+00    0.0000000000E+00
    0.0000000000E+00    0.0000000000E+00    0.0000000000E+00
    0.0000000000E+00    0.0000000000E+00    0.0000000000E+00
    0.0000000000E+00    0.0000000000E+00    0.0000000000E+00
    0.0000000000E+00    0.0000000000E+00    0.0000000000E+00
    0.0000000000E+00    0.0000000000E+00    0.0000000000E+00
    0.0000000000E+00    0.0000000000E+00    0.0000000000E+00
    0.0000000000E+00    0.0000000000E+00    0.0000000000E+00
    0.0000000000E+00    0.0000000000E+00    0.0000000000E+00
    0.0000000000E+00    0.0000000000E+00    0.0000000000E+00
    0.0000000000E+00    0.0000000000E+00    0.0000000000E+00
    0.0000000000E+00    0.0000000000E+00    0.0000000000E+00
    0.0000000000E+00    0.0000000000E+00    0.0000000000E+00
    0.0000000000E+00    0.0000000000E+00    0.0000000000E+00
    0.0000000000E+00    0.0000000000E+00    0.0000000000E+00
    0.0000000000E+00    0.0000000000E+00    0.0000000000E+00
    0.0000000000E+00    0.0000000000E+00    0.0000000000E+00
    0.0000000000E+00    0.0000000000E+00    0.0000000000E+00
    0.0000000000E+00    0.0000000000E+00    0.0000000000E+00
    0.0000000000E+00    0.0000000000E+00    0.0000000000E+00
    0.0000000000E+00    0.0000000000E+00    0.0000000000E+00
    0.0000000000E+00    0.0000000000E+00    0.0000000000E+00
    0.0000000000E+00    0.0000000000E+00    0.0000000000E+00
    0.0000000000E+00    0.0000000000E+00    0.0000000000E+00
    0.0000000000E+00    0.0000000000E+00    0.0000000000E+00
    3.1408059063E-03    2.2001076059E-03   -3.0121061769E-04
    1.5733545408E-03    4.2838599998E-07    9.5807565877E-04
    5.5625705725E-03   -8.8036335156E-04    8.6018334284E-04
   -2.5895100106E-03    6.3373952422E-03    2.5971002560E-03
   -1.1177094697E-03    2.3581139257E-03    3.0770274783E-03
    1.4377041735E-03    2.1697236680E-03   -2.4482665845E-03
    8.7067690800E-04    2.2873162106E-03   -1.4957136527E-03
   -4.5039565062E-04    1.0669471290E-03   -1.8419578041E-03
   -1.2649125357E-03   -2.7185737614E-03   -3.1733739647E-03
   -7.2123708154E-04    1.2159839539E-03    7.9342110805E-04
   -3.3912320592E-03    5.7230100529E-03   -2.2052457547E-03
   -1.0783289197E-03    1.3352398113E-03   -1.5099509136E-04
   -2.2100692969E-04   -3.2764505965E-05    2.5764674228E-03
   -3.0082547715E-03    1.5915125122E-03    3.1701293724E-04
   -5.1601914457E-04    2.9127995090E-03    3.9653857372E-03
   -2.5553443470E-03    4.1858069387E-03    9.2122190704E-03
   -3.6214055051E-03    6.4682330009E-03    1.9561527455E-03
   -2.7864315296E-04    3.0237466203E-03    1.5194360682E-04
   -5.0824866781E-03    2.6804801935E-03    2.3632666476E-05
   -2.1945953702E-03    2.6164914156E-04    1.4409431692E-03
   -7.4269744340E-04   -1.2477135627E-03   -4.6052647092E-03
   -1.2278960127E-03    3.5010439376E-03    5.6160681659E-04
   -4.8632239681E-03    3.4616735689E-03   -2.5427519209E-04
   -6.9167634633E-04    7.9918767213E-03    1.3319244407E-03
   -7.2292048136E-03    6.6541833144E-03    1.1448979814E-03
   -7.0473873825E-05    3.7025500286E-03   -4.7463166085E-04
    1.4610402997E-03    3.2729120336E-03   -1.1354656908E-03
    1.5399486965E-02   -3.1623243783E-02    9.3998171521E-03
   -5.0075626683E-04    7.4547493059E-03   -5.2849385856E-03
   -1.4977280851E-03    1.7241280897E-03   -1.1136736294E-03
   -1.9765259334E-03    1.5530718024E-03    3.2640242035E-03
   -3.1622866344E-02   -2.5431073790E-02   -4.1505547661E-03
   -2.2243172271E-03   -2.3909347115E-03    4.5160626767E-02
    2.6796663054E-03    3.2839969740E-03    1.3370093451E-03
    2.0578283739E-02   -1.7819424465E-03   -1.9098523271E-03
    1.6188357336E-03    7.0816991363E-03    7.5307071544E-04
   -2.8871782741E-03   -1.1477002664E-03    5.7059135171E-04
    4.8177493850E-03   -2.7615132206E-04   -2.9827551818E-03
   -5.0352582591E-03   -9.9730081627E-03   -4.2507836092E-03
   -6.6329772887E-03    7.3465071276E-03    6.6160676410E-03
    5.0741378989E-04    1.0708593517E-03    1.2790418339E-03
   -3.9884045766E-03   -1.5918731372E-03    2.6580982219E-03
    3.6643446396E-04    6.1463736373E-03    1.6798414115E-02
    9.2926883419E-03    2.2462401064E-03   -1.2559762251E-02
    2.1095050668E-03   -7.4419853507E-04    1.2134131654E-03
    7.0765792680E-04    1.1209623623E-03    3.8501424199E-03
    6.5646104784E-03    3.8110375035E-02    6.4615874160E-02
    1.6647503468E-03    6.0838286953E-03   -5.9501173197E-04
    4.3709325827E-03    7.5058632953E-03   -5.7147912946E-03
    5.4221559326E-03    2.8350215017E-04   -1.5129847214E-02
    9.4017853261E-04   -5.1519957381E-03    5.2251484263E-03
   -1.4131619553E-02   -8.9456275752E-03    1.1797608241E-03
    3.8908953096E-03    5.7023881552E-03   -1.7586390007E-03
   -2.1055833329E-03    1.5155885793E-03   -2.1150142817E-03
   -3.5385288606E-04   -1.1159441515E-02    8.9447549251E-03
    3.7143470668E-02   -1.0545275517E-02   -7.7235293661E-03
    1.5642488188E-03    4.1472794834E-03   -4.0712761799E-03
    4.2344478786E-03    2.7044979646E-03    1.6115770754E-04
    3.5677330013E-04   -1.0353118430E-02   -6.8269318314E-03
   -1.9019019244E-02    2.4540353729E-03    3.0342902471E-02
   -2.0634216200E-04    5.4637212054E-03   -6.0140128050E-04
    1.2325617592E-03    1.6741891035E-03    3.8171918872E-04
    1.2978014283E-02   -2.3191816262E-02    2.2023896964E-02
    2.8937336006E-03   -4.2034151961E-04   -1.8087163981E-03
    1.0545762891E-01    4.6345170616E-02   -7.8522553989E-02
   -8.9309715802E-02    5.6534657597E-02    7.3112261950E-02
    4.1340518679E-02    1.1022866204E-02   -1.0498266646E-02
   -9.3333108823E-02   -5.6239375783E-02   -8.9816674314E-03
   -1.2880350689E-02   -7.4621005026E-02   -5.9321739863E-02
    6.4319489265E-03    1.9311873670E-02   -1.6979196604E-02
    1.2019658402E-01   -1.2902090572E-01   -8.5532573467E-04
   -3.5939989354E-02    2.7430858437E-02   -5.0463655495E-03
   -1.3348822633E-02   -3.8423741555E-03   -1.7860064642E-02
   -1.8874772352E-01    7.0788369410E-01    1.5828240891E-01
   -3.7543610326E-02   -2.6493750787E-03   -6.6825622538E-03
   -5.3378917592E-02    8.2183579092E-02    1.1829427924E-01
   -6.3672932318E-03   -6.1607558587E-02   -4.6411760050E-02
   -3.8821815447E-02   -3.9675449093E-02   -1.6068441532E-02
   -1.4540857552E-02   -1.5163281581E-01    4.3820883625E-02
   -2.0396846022E-02   -6.4441005983E-03   -5.8679841569E-03
   -2.1202802812E-02    7.7286491492E-03   -1.4792601386E-02
    1.5452208963E-02   -1.0275019706E-01   -8.3187994797E-02
   -4.1499715405E-02   -3.4638543484E-02   -2.3037646026E-02
    2.5803915306E-02   -2.4414206237E-01   -1.9030593442E-01
    9.5403960754E-02   -1.8798433444E-01   -2.2966556505E-01
   -3.0414341470E-02   -1.0060117932E-01   -1.1660788838E-02
 Dimer: -----------------
 Dimer: Itr    1 Rot    0

 Dimer: Central Point
 Dimer: F0      0.239478

 Dimer: Projection
 Dimer: N*F0 -4.453763941585880E-003
 Dimer: F0sq  5.734976910723025E-002
 Dimer: Feffsq   1.983601324737060E-005
 Dimer: Feff
    0.0000000000E+00    0.0000000000E+00    0.0000000000E+00
    0.0000000000E+00    0.0000000000E+00    0.0000000000E+00
    0.0000000000E+00    0.0000000000E+00    0.0000000000E+00
    0.0000000000E+00    0.0000000000E+00    0.0000000000E+00
    0.0000000000E+00    0.0000000000E+00    0.0000000000E+00
    0.0000000000E+00    0.0000000000E+00    0.0000000000E+00
    0.0000000000E+00    0.0000000000E+00    0.0000000000E+00
    0.0000000000E+00    0.0000000000E+00    0.0000000000E+00
    0.0000000000E+00    0.0000000000E+00    0.0000000000E+00
    0.0000000000E+00    0.0000000000E+00    0.0000000000E+00
    0.0000000000E+00    0.0000000000E+00    0.0000000000E+00
    0.0000000000E+00    0.0000000000E+00    0.0000000000E+00
    0.0000000000E+00    0.0000000000E+00    0.0000000000E+00
    0.0000000000E+00    0.0000000000E+00    0.0000000000E+00
    0.0000000000E+00    0.0000000000E+00    0.0000000000E+00
    0.0000000000E+00    0.0000000000E+00    0.0000000000E+00
    5.7738174328E-06    1.8949366793E-05    5.5524621519E-07
   -2.6165764583E-07    7.8907146708E-06   -2.4776086625E-06
    5.0618485474E-06    1.3135337124E-05   -1.7881035438E-07
   -1.7877993510E-05   -1.0534161294E-05    1.2305291099E-05
   -1.6573754769E-05    1.4019530083E-05    2.5927174906E-05
   -2.0926896896E-06    7.9830952281E-06    9.5895266503E-06
    1.7669398355E-06   -4.1052253254E-06   -2.6174768887E-05
   -1.2527168560E-06    2.3603144078E-05    5.7709349256E-07
   -5.8749174649E-06    7.7963878716E-06    5.3411587985E-06
    2.4712768584E-06    6.1949386953E-06   -2.1227953293E-06
   -4.2742230036E-06    4.1436589964E-06   -3.4399776868E-06
   -5.9259204620E-06    6.3019826166E-06   -2.0923233795E-06
   -5.5842921882E-06    1.9734301723E-05    1.6177864292E-05
    9.0840556517E-07    1.4091465937E-05   -3.5882729975E-07
   -3.7351843313E-06    2.3956072689E-05    3.2333187078E-05
    5.5951919462E-06    1.7995704298E-05   -2.0077518442E-05
    9.1787767226E-06    3.2401287766E-06    6.5507759805E-06
    6.5191846579E-06    9.9747381343E-06    4.5521944941E-06
   -4.4295309397E-05   -2.3200393518E-05    5.6157576176E-06
    2.1441875691E-06    3.6247478240E-05    1.5782990267E-05
   -3.0004256493E-06    3.5045526243E-05    2.3790926823E-05
   -1.1389860157E-05    3.0816283924E-06    3.0353834040E-06
    5.6309776602E-06   -1.6046760125E-05   -9.4616189600E-06
    8.9889857959E-05    5.9037815261E-05   -9.2114394979E-05
    2.0224372550E-05    2.5697202342E-05   -1.5737034836E-05
    4.2404534540E-06    5.1048100608E-06   -1.9243960609E-06
    2.7632009505E-07   -4.3407818140E-06    1.6563268739E-05
   -9.2404236530E-05    2.9865304182E-05    2.4187266022E-04
   -3.8674253866E-05    2.0046889962E-05    3.3448282870E-05
   -3.0797674046E-06    8.8015457721E-06   -1.0686254147E-06
    4.1650267205E-05    2.0318455489E-05   -3.0066154032E-05
    2.4845274775E-05    2.5682247969E-06    1.4887968065E-05
    2.7245217349E-04    7.7495601714E-04    3.6781824017E-05
    0.0000000000E+00    0.0000000000E+00    0.0000000000E+00
    0.0000000000E+00    0.0000000000E+00    0.0000000000E+00
    0.0000000000E+00    0.0000000000E+00    0.0000000000E+00
    0.0000000000E+00    0.0000000000E+00    0.0000000000E+00
    0.0000000000E+00    0.0000000000E+00    0.0000000000E+00
    0.0000000000E+00    0.0000000000E+00    0.0000000000E+00
    0.0000000000E+00    0.0000000000E+00    0.0000000000E+00
    0.0000000000E+00    0.0000000000E+00    0.0000000000E+00
    0.0000000000E+00    0.0000000000E+00    0.0000000000E+00
    0.0000000000E+00    0.0000000000E+00    0.0000000000E+00
    0.0000000000E+00    0.0000000000E+00    0.0000000000E+00
    0.0000000000E+00    0.0000000000E+00    0.0000000000E+00
    0.0000000000E+00    0.0000000000E+00    0.0000000000E+00
    0.0000000000E+00    0.0000000000E+00    0.0000000000E+00
    0.0000000000E+00    0.0000000000E+00    0.0000000000E+00
    0.0000000000E+00    0.0000000000E+00    0.0000000000E+00
    0.0000000000E+00    0.0000000000E+00    0.0000000000E+00
    0.0000000000E+00    0.0000000000E+00    0.0000000000E+00
    0.0000000000E+00    0.0000000000E+00    0.0000000000E+00
    0.0000000000E+00    0.0000000000E+00    0.0000000000E+00
    0.0000000000E+00    0.0000000000E+00    0.0000000000E+00
    0.0000000000E+00    0.0000000000E+00    0.0000000000E+00
    0.0000000000E+00    0.0000000000E+00    0.0000000000E+00
    0.0000000000E+00    0.0000000000E+00    0.0000000000E+00
    0.0000000000E+00    0.0000000000E+00    0.0000000000E+00
    0.0000000000E+00    0.0000000000E+00    0.0000000000E+00
    0.0000000000E+00    0.0000000000E+00    0.0000000000E+00
    0.0000000000E+00    0.0000000000E+00    0.0000000000E+00
    0.0000000000E+00    0.0000000000E+00    0.0000000000E+00
    0.0000000000E+00    0.0000000000E+00    0.0000000000E+00
    0.0000000000E+00    0.0000000000E+00    0.0000000000E+00
    0.0000000000E+00    0.0000000000E+00    0.0000000000E+00
    1.3988408093E-05    9.7987599227E-06   -1.3415209879E-06
    7.0073497211E-06    1.9079301198E-09    4.2670428223E-06
    2.4774376238E-05   -3.9209305506E-06    3.8310535555E-06
   -1.1533066311E-05    2.8225262413E-05    1.1566871473E-05
   -4.9780141333E-06    1.0502482772E-05    1.3704354030E-05
    6.4031950066E-06    9.6634370357E-06   -1.0904001433E-05
    3.8777894176E-06    1.0187166462E-05   -6.6615555333E-06
   -2.0059559082E-06    4.7519306507E-06   -8.2036452498E-06
   -5.6336218407E-06   -1.2107885791E-05   -1.4133458537E-05
   -3.2122197071E-06    5.4157054874E-06    3.5337103215E-06
   -1.5103747063E-05    2.5488935811E-05   -9.8216440245E-06
   -4.8026224597E-06    5.9468429249E-06   -6.7249649325E-07
   -9.8431269429E-07   -1.4592537523E-07    1.1474977704E-05
   -1.3398056628E-05    7.0882210394E-06    1.4119007889E-06
   -2.2982274592E-06    1.2972921422E-05    1.7660892011E-05
   -1.1380900511E-05    1.8642596010E-05    4.1029049117E-05
   -1.6128885256E-05    2.8807982905E-05    8.7122425621E-06
   -1.2410108272E-06    1.3467053666E-05    6.7672095720E-07
   -2.2636195900E-05    1.1938226032E-05    1.0525431779E-07
   -9.7742097261E-06    1.1653235120E-06    6.4176207288E-06
   -3.3077990929E-06   -5.5570216749E-06   -2.0510761903E-05
   -5.4687589853E-06    1.5592823247E-05    2.5012641891E-06
   -2.1659651549E-05    1.5417476919E-05   -1.1324816818E-06
   -3.0805631705E-06    3.5593932367E-05    5.9320770469E-06
   -3.2197171725E-05    2.9636161706E-05    5.0991053463E-06
   -3.1387399806E-07    1.6490283809E-05   -2.1138973766E-06
    6.5071286040E-06    1.4576777599E-05   -5.0570961506E-06
    6.8585679763E-05   -1.4084246288E-04    4.1864566689E-05
   -2.2302502047E-06    3.3201693652E-05   -2.3537868906E-05
   -6.6705273397E-06    7.6788595165E-06   -4.9600394533E-06
   -8.8029799317E-06    6.9170151922E-06    1.4537193302E-05
   -1.4084078185E-04   -1.1326399944E-04   -1.8485591155E-05
   -9.9065838606E-06   -1.0648658805E-05    2.0113477107E-04
    1.1934601166E-05    1.4626147307E-05    5.9547240107E-06
    9.1650818096E-05   -7.9363510141E-06   -8.5060314281E-06
    7.2099122176E-06    3.1540216258E-05    3.3539991979E-06
   -1.2858810490E-05   -5.1115860622E-06    2.5412791876E-06
    2.1457118490E-05   -1.2299128006E-06   -1.3284487475E-05
   -2.2425851671E-05   -4.4417424144E-05   -1.8931986762E-05
   -2.9541715074E-05    3.2719608541E-05    2.9466403494E-05
    2.2599012409E-06    4.7693547671E-06    5.6965503996E-06
   -1.7763412488E-05   -7.0898271780E-06    1.1838542014E-05
    1.6320126025E-06    2.7374497277E-05    7.4816171061E-05
    4.1387440257E-05    1.0004223190E-05   -5.5938216228E-05
    9.3952376010E-06   -3.3144846009E-06    5.4042558023E-06
    3.1517413573E-06    4.9925017490E-06    1.7147625480E-05
    2.9237225439E-05    1.6973461413E-04    2.8778385039E-04
    7.4144050663E-06    2.7095936870E-05   -2.6500417966E-06
    1.9467101928E-05    3.3429343295E-05   -2.5452331401E-05
    2.4149002578E-05    1.2626516538E-06   -6.7384767963E-05
    4.1873332472E-06   -2.2945772845E-05    2.3271577650E-05
   -6.2938897601E-05   -3.9841713529E-05    5.2543762180E-06
    1.7329129230E-05    2.5397090746E-05   -7.8325629675E-06
   -9.3777711240E-06    6.7500737647E-06   -9.4197743437E-06
   -1.5759772245E-06   -4.9701518227E-05    3.9837826951E-05
    1.6542825033E-04   -4.6966167851E-05   -3.4398776592E-05
    6.9667949848E-06    1.8471003819E-05   -1.8132503046E-05
    1.8859231274E-05    1.2045195515E-05    7.1775838674E-07
    1.5889840594E-06   -4.6110345546E-05   -3.0405542822E-05
   -8.4706222113E-05    1.0929694255E-05    1.3514012491E-04
   -9.1899928074E-07    2.4334124491E-05   -2.6784993375E-06
    5.4895391189E-06    7.4564430605E-06    1.7000871585E-06
    5.7801012047E-05   -1.0329087501E-04    9.8089238151E-05
    1.2888006367E-05   -1.8721019032E-06   -8.0555958744E-06
    4.6968338500E-04    2.0641044975E-04   -3.4972091955E-04
   -3.9776439187E-04    2.5179201945E-04    3.2562475596E-04
    1.8412091142E-04    4.9093244032E-05   -4.6756801437E-05
   -4.1568363463E-04   -2.5047690396E-04   -4.0002226541E-05
   -5.7366041453E-05   -3.3234434147E-04   -2.6420502595E-04
    2.8646382203E-05    8.6010526595E-05   -7.5621333591E-05
    5.3532721181E-04   -5.7462865760E-04   -3.8094189154E-06
   -1.6006822864E-04    1.2217056819E-04   -2.2475320920E-05
   -5.9452504905E-05   -1.7113027464E-05   -7.9544511896E-05
   -8.4063780506E-04    3.1527468716E-03    7.0495248539E-04
   -1.6721037791E-04   -1.1799691193E-05   -2.9762554803E-05
   -2.3773709841E-04    3.6602626115E-04    5.2685479537E-04
   -2.8358421001E-05   -2.7438552296E-04   -2.0670702337E-04
   -1.7290320178E-04   -1.7670508454E-04   -7.1565045492E-05
   -6.4761547044E-05   -6.7533676741E-04    1.9516787138E-04
   -9.0842737334E-05   -2.8700502880E-05   -2.6134616248E-05
   -9.4432278624E-05    3.4421578898E-05   -6.5882754655E-05
    6.8820491097E-05   -4.5762512265E-04   -3.7049969160E-04
   -1.8482993606E-04   -1.5427189596E-04   -1.0260423717E-04
    1.1492454754E-04   -1.0873511140E-03   -8.4757770858E-04
    4.2490672029E-04   -8.3723785031E-04   -1.0228762122E-03
   -1.3545829735E-04   -4.4805390493E-04   -5.1934400857E-05
 
 stress matrix after NEB project (eV)
    -56.03743    -24.66158      2.35803
    -24.66158    -72.02817     -0.89586
      2.35803     -0.89586     -8.29966
  FORCES: max atom, RMS     0.045487    0.018531
  FORCE total and by dimension    0.239478    0.042749
  Stress total and by dimension   98.113445   72.028167
 OPT: skip step - force has converged
 writing wavefunctions
     LOOP+:  cpu time  569.5373: real time  611.1888
    4ORBIT:  cpu time    0.0000: real time    0.0000

 total amount of memory used by VASP MPI-rank0    92406. kBytes
=======================================================================

   base      :      30000. kBytes
   nonlr-proj:       9143. kBytes
   fftplans  :       4220. kBytes
   grid      :      12288. kBytes
   one-center:        342. kBytes
   wavefun   :      36413. kBytes
 
  
  
 General timing and accounting informations for this job:
 ========================================================
  
                  Total CPU time used (sec):      886.150
                            User time (sec):      642.235
                          System time (sec):      243.915
                         Elapsed time (sec):      936.949
  
                   Maximum memory used (kb):      932344.
                   Average memory used (kb):           0.
  
                          Minor page faults:        54864
                          Major page faults:           74
                 Voluntary context switches:        14977
