       N       E                     dE             d eps       ncg     rms          rms(c)
DAV:   1    -0.137858764648E+04   -0.13786E+04   -0.13471E+00  6336   0.982E-01    0.950E-01
DAV:   2    -0.138034036536E+04   -0.17527E+01   -0.12006E+00  6176   0.953E-01    0.411E-01
DAV:   3    -0.138035014221E+04   -0.97768E-02   -0.42812E-02  6720   0.229E-01    0.277E-01
DAV:   4    -0.138035018718E+04   -0.44973E-04   -0.21808E-03  5600   0.578E-02    0.224E-01
DAV:   5    -0.138035019196E+04   -0.47822E-05   -0.19825E-04  6656   0.183E-02    0.188E-01
DAV:   6    -0.138035020304E+04   -0.11078E-04   -0.24171E-05  6912   0.735E-03    0.161E-01
DAV:   7    -0.138035020731E+04   -0.42745E-05   -0.23293E-05  6528   0.816E-03    0.130E-01
DAV:   8    -0.138035021105E+04   -0.37378E-05   -0.17865E-05  6208   0.667E-03    0.106E-01
DAV:   9    -0.138035021464E+04   -0.35919E-05   -0.46291E-06  4160   0.342E-03    0.911E-02
DAV:  10    -0.138035021849E+04   -0.38444E-05   -0.21480E-05  6304   0.743E-03    0.567E-02
DAV:  11    -0.138035022197E+04   -0.34825E-05   -0.32960E-05  6624   0.933E-03    0.192E-02
DAV:  12    -0.138035022300E+04   -0.10293E-05   -0.44546E-06  4352   0.298E-03    0.117E-02
DAV:  13    -0.138035022317E+04   -0.17096E-06   -0.96043E-07  3008   0.155E-03
   1 F= -.13995634E+04 E0= -.13995634E+04  d E =-.803426E-19  mag=    -0.0000
