       N       E                     dE             d eps       ncg     rms          rms(c)
DAV:   1    -0.127905720282E+04   -0.12791E+04   -0.12681E+00  6336   0.966E-01    0.957E-01
DAV:   2    -0.128080325364E+04   -0.17461E+01   -0.11320E+00  6272   0.936E-01    0.402E-01
DAV:   3    -0.128081315410E+04   -0.99005E-02   -0.38775E-02  6784   0.221E-01    0.277E-01
DAV:   4    -0.128081318632E+04   -0.32215E-04   -0.20004E-03  5696   0.555E-02    0.224E-01
DAV:   5    -0.128081319446E+04   -0.81429E-05   -0.18259E-04  6784   0.176E-02    0.189E-01
DAV:   6    -0.128081321115E+04   -0.16689E-04   -0.21728E-05  7264   0.704E-03    0.163E-01
DAV:   7    -0.128081322193E+04   -0.10782E-04   -0.23014E-05  6912   0.820E-03    0.129E-01
DAV:   8    -0.128081322950E+04   -0.75698E-05   -0.15530E-05  7104   0.620E-03    0.106E-01
DAV:   9    -0.128081323535E+04   -0.58530E-05   -0.43151E-06  7392   0.319E-03    0.909E-02
DAV:  10    -0.128081324319E+04   -0.78358E-05   -0.16500E-05  6688   0.709E-03    0.572E-02
DAV:  11    -0.128081324897E+04   -0.57781E-05   -0.33604E-05  6656   0.959E-03    0.167E-02
DAV:  12    -0.128081325023E+04   -0.12657E-05   -0.46266E-06  7168   0.273E-03    0.112E-02
DAV:  13    -0.128081325052E+04   -0.29290E-06   -0.79728E-07  6432   0.146E-03    0.518E-03
DAV:  14    -0.128081325057E+04   -0.45591E-07   -0.41124E-07  7328   0.879E-04    0.246E-03
DAV:  15    -0.128081325055E+04    0.23589E-07   -0.28462E-08  3616   0.328E-04    0.811E-04
DAV:  16    -0.128081325055E+04   -0.47439E-08   -0.40253E-08  4352   0.262E-04
   1 F= -.12994265E+04 E0= -.12994265E+04  d E =-.129943E+04  mag=     0.0000
       N       E                     dE             d eps       ncg     rms          rms(c)
DAV:   1    -0.128081196866E+04    0.12819E-02   -0.57873E-01  5120   0.871E-01    0.130E-01
DAV:   2    -0.128081228956E+04   -0.32091E-03   -0.51471E-03  5728   0.825E-02    0.915E-02
DAV:   3    -0.128081221389E+04    0.75678E-04   -0.51960E-04  6144   0.420E-02    0.378E-02
DAV:   4    -0.128081221912E+04   -0.52360E-05   -0.12125E-04  6176   0.164E-02    0.166E-02
DAV:   5    -0.128081221540E+04    0.37207E-05   -0.41260E-05  5920   0.104E-02    0.704E-03
DAV:   6    -0.128081221486E+04    0.54063E-06   -0.48927E-06  6176   0.335E-03    0.402E-03
DAV:   7    -0.128081221507E+04   -0.20521E-06   -0.37359E-06  6432   0.275E-03    0.246E-03
DAV:   8    -0.128081221513E+04   -0.61831E-07   -0.55148E-07  5920   0.115E-03    0.133E-03
DAV:   9    -0.128081221547E+04   -0.34398E-06   -0.29784E-07  5184   0.751E-04    0.665E-04
DAV:  10    -0.128081221581E+04   -0.33918E-06   -0.83505E-08  5408   0.486E-04    0.703E-04
DAV:  11    -0.128081221620E+04   -0.38401E-06   -0.73649E-08  5312   0.446E-04    0.247E-04
DAV:  12    -0.128081221658E+04   -0.37982E-06   -0.28985E-08  4416   0.240E-04    0.207E-04
DAV:  13    -0.128081221683E+04   -0.25693E-06   -0.69777E-09  3360   0.115E-04    0.191E-04
DAV:  14    -0.128081221714E+04   -0.30584E-06   -0.15844E-08  3888   0.109E-04    0.903E-05
DAV:  15    -0.128081221732E+04   -0.18433E-06   -0.53746E-09  3360   0.661E-05    0.553E-05
DAV:  16    -0.128081221743E+04   -0.10806E-06   -0.24425E-09  3264   0.566E-05    0.359E-05
DAV:  17    -0.128081221751E+04   -0.80880E-07   -0.27188E-09  3264   0.557E-05    0.449E-05
DAV:  18    -0.128081221755E+04   -0.34022E-07   -0.87829E-10  3264   0.363E-05    0.353E-05
DAV:  19    -0.128081221757E+04   -0.24665E-07   -0.38429E-10  3200   0.359E-05    0.937E-06
DAV:  20    -0.128081221758E+04   -0.11001E-07    0.16792E-10  3232   0.244E-05    0.155E-05
DAV:  21    -0.128081221759E+04   -0.79308E-08    0.48051E-10  3072   0.162E-05
   2 F= -.12994256E+04 E0= -.12994256E+04  d E =0.955353E-03  mag=     0.0000
       N       E                     dE             d eps       ncg     rms          rms(c)
DAV:   1    -0.128081198259E+04    0.23499E-03   -0.11570E+00  5120   0.122E+00    0.142E-01
DAV:   2    -0.128081275740E+04   -0.77481E-03   -0.10332E-02  5600   0.109E-01    0.916E-02
DAV:   3    -0.128081265765E+04    0.99743E-04   -0.76824E-04  6432   0.389E-02    0.475E-02
DAV:   4    -0.128081264206E+04    0.15597E-04   -0.20417E-04  5696   0.224E-02    0.169E-02
DAV:   5    -0.128081263940E+04    0.26534E-05   -0.56615E-05  5632   0.116E-02    0.914E-03
DAV:   6    -0.128081263950E+04   -0.93569E-07   -0.96588E-06  5952   0.348E-03    0.546E-03
DAV:   7    -0.128081263934E+04    0.15798E-06   -0.26231E-06  6432   0.245E-03    0.300E-03
DAV:   8    -0.128081263970E+04   -0.35905E-06   -0.62623E-07  6304   0.124E-03    0.176E-03
DAV:   9    -0.128081264015E+04   -0.45518E-06   -0.28141E-07  6304   0.772E-04    0.626E-04
DAV:  10    -0.128081264076E+04   -0.60322E-06   -0.62180E-08  4704   0.370E-04    0.396E-04
DAV:  11    -0.128081264140E+04   -0.64356E-06   -0.42421E-08  4512   0.285E-04    0.257E-04
DAV:  12    -0.128081264191E+04   -0.51119E-06   -0.25477E-08  4128   0.186E-04    0.139E-04
DAV:  13    -0.128081264232E+04   -0.40999E-06   -0.13950E-08  3776   0.115E-04    0.895E-05
DAV:  14    -0.128081264262E+04   -0.29813E-06   -0.10005E-08  3744   0.793E-05    0.603E-05
DAV:  15    -0.128081264283E+04   -0.20961E-06   -0.58165E-09  3392   0.673E-05    0.452E-05
DAV:  16    -0.128081264293E+04   -0.10195E-06   -0.27179E-09  3264   0.512E-05    0.324E-05
DAV:  17    -0.128081264297E+04   -0.39610E-07   -0.10433E-09  3264   0.444E-05    0.231E-05
DAV:  18    -0.128081264302E+04   -0.45329E-07   -0.15704E-09  3200   0.431E-05    0.241E-05
DAV:  19    -0.128081264303E+04   -0.82509E-08    0.84182E-11  3264   0.352E-05
   3 F= -.12994260E+04 E0= -.12994260E+04  d E =-.398095E-03  mag=    -0.0000
       N       E                     dE             d eps       ncg     rms          rms(c)
DAV:   1    -0.128081256266E+04    0.80361E-04   -0.11505E+00  5120   0.122E+00    0.126E-01
DAV:   2    -0.128081306389E+04   -0.50124E-03   -0.91079E-03  5664   0.112E-01    0.889E-02
DAV:   3    -0.128081293867E+04    0.12522E-03   -0.87063E-04  6496   0.419E-02    0.465E-02
DAV:   4    -0.128081291851E+04    0.20161E-04   -0.18636E-04  5760   0.203E-02    0.168E-02
DAV:   5    -0.128081291729E+04    0.12258E-05   -0.48399E-05  5536   0.110E-02    0.909E-03
DAV:   6    -0.128081291753E+04   -0.24849E-06   -0.70190E-06  5792   0.343E-03    0.486E-03
DAV:   7    -0.128081291873E+04   -0.11930E-05   -0.28163E-06  6464   0.265E-03    0.277E-03
DAV:   8    -0.128081292011E+04   -0.13866E-05   -0.57074E-07  6464   0.116E-03    0.139E-03
DAV:   9    -0.128081292224E+04   -0.21223E-05   -0.26652E-07  5472   0.831E-04    0.678E-04
DAV:  10    -0.128081292432E+04   -0.20817E-05   -0.15551E-07  5504   0.574E-04    0.544E-04
DAV:  11    -0.128081292597E+04   -0.16576E-05   -0.10156E-07  5088   0.416E-04    0.261E-04
DAV:  12    -0.128081292761E+04   -0.16330E-05   -0.83185E-08  4544   0.290E-04    0.229E-04
DAV:  13    -0.128081292844E+04   -0.83703E-06   -0.33949E-08  4608   0.174E-04    0.136E-04
DAV:  14    -0.128081292913E+04   -0.68377E-06   -0.23302E-08  4128   0.112E-04    0.892E-05
DAV:  15    -0.128081292955E+04   -0.42550E-06   -0.12505E-08  3936   0.794E-05    0.575E-05
DAV:  16    -0.128081292980E+04   -0.24815E-06   -0.53376E-09  3424   0.728E-05    0.341E-05
DAV:  17    -0.128081292994E+04   -0.13594E-06   -0.41489E-09  3424   0.640E-05    0.357E-05
DAV:  18    -0.128081292998E+04   -0.46595E-07   -0.10499E-09  3328   0.575E-05    0.210E-05
DAV:  19    -0.128081293002E+04   -0.31316E-07   -0.39690E-10  3264   0.472E-05    0.222E-05
DAV:  20    -0.128081293004E+04   -0.22061E-07    0.26575E-10  3264   0.322E-05    0.214E-05
DAV:  21    -0.128081293005E+04   -0.74360E-08    0.70081E-10  3264   0.188E-05
   4 F= -.12994264E+04 E0= -.12994264E+04  d E =-.437730E-03  mag=     0.0000
       N       E                     dE             d eps       ncg     rms          rms(c)
DAV:   1    -0.128081182520E+04    0.11048E-02   -0.11504E+00  5120   0.123E+00    0.185E-01
DAV:   2    -0.128081273479E+04   -0.90959E-03   -0.12441E-02  5632   0.125E-01    0.147E-01
DAV:   3    -0.128081256333E+04    0.17146E-03   -0.10388E-03  6752   0.496E-02    0.879E-02
DAV:   4    -0.128081253595E+04    0.27385E-04   -0.52331E-04  6080   0.397E-02    0.255E-02
DAV:   5    -0.128081252396E+04    0.11984E-04   -0.14546E-04  5824   0.200E-02    0.152E-02
DAV:   6    -0.128081252354E+04    0.42266E-06   -0.46677E-05  6176   0.877E-03    0.908E-03
DAV:   7    -0.128081252280E+04    0.74410E-06   -0.88844E-06  6720   0.475E-03    0.396E-03
DAV:   8    -0.128081252350E+04   -0.70686E-06   -0.31255E-06  5920   0.290E-03    0.336E-03
DAV:   9    -0.128081252412E+04   -0.61849E-06   -0.84038E-07  6624   0.147E-03    0.144E-03
DAV:  10    -0.128081252599E+04   -0.18709E-05   -0.60590E-07  5536   0.123E-03    0.121E-03
DAV:  11    -0.128081252788E+04   -0.18861E-05   -0.19869E-07  6016   0.815E-04    0.103E-03
DAV:  12    -0.128081252950E+04   -0.16184E-05   -0.21504E-07  5072   0.661E-04    0.301E-04
DAV:  13    -0.128081253087E+04   -0.13789E-05   -0.61321E-08  4832   0.270E-04    0.254E-04
DAV:  14    -0.128081253192E+04   -0.10499E-05   -0.28709E-08  4096   0.166E-04    0.198E-04
DAV:  15    -0.128081253305E+04   -0.11270E-05   -0.38687E-08  4160   0.131E-04    0.122E-04
DAV:  16    -0.128081253365E+04   -0.60174E-06   -0.16727E-08  3872   0.134E-04    0.600E-05
DAV:  17    -0.128081253391E+04   -0.25670E-06   -0.32412E-09  3328   0.686E-05    0.494E-05
DAV:  18    -0.128081253408E+04   -0.17183E-06   -0.31599E-09  3296   0.537E-05    0.462E-05
DAV:  19    -0.128081253416E+04   -0.77547E-07   -0.13334E-09  3264   0.514E-05    0.365E-05
DAV:  20    -0.128081253419E+04   -0.30428E-07   -0.45259E-10  3328   0.424E-05    0.155E-05
DAV:  21    -0.128081253421E+04   -0.17899E-07    0.12082E-10  3264   0.347E-05    0.166E-05
DAV:  22    -0.128081253422E+04   -0.11147E-07    0.49571E-10  3232   0.216E-05    0.201E-05
DAV:  23    -0.128081253422E+04   -0.31723E-08    0.64466E-10  3136   0.150E-05
   5 F= -.12994258E+04 E0= -.12994258E+04  d E =0.649524E-03  mag=     0.0000
       N       E                     dE             d eps       ncg     rms          rms(c)
DAV:   1    -0.128081196949E+04    0.56473E-03   -0.11487E+00  5120   0.111E+00    0.974E-02
DAV:   2    -0.128081258556E+04   -0.61607E-03   -0.85278E-03  5600   0.897E-02    0.634E-02
DAV:   3    -0.128081251654E+04    0.69020E-04   -0.80703E-04  6304   0.295E-02    0.305E-02
DAV:   4    -0.128081249670E+04    0.19839E-04   -0.13305E-04  5504   0.141E-02    0.127E-02
DAV:   5    -0.128081249644E+04    0.25528E-06   -0.22477E-05  5696   0.652E-03    0.739E-03
DAV:   6    -0.128081249534E+04    0.11044E-05   -0.45846E-06  5696   0.242E-03    0.280E-03
DAV:   7    -0.128081249546E+04   -0.12046E-06   -0.10502E-06  7040   0.149E-03    0.146E-03
DAV:   8    -0.128081249580E+04   -0.34475E-06   -0.22130E-07  5760   0.608E-04    0.800E-04
DAV:   9    -0.128081249647E+04   -0.66226E-06   -0.85109E-08  5184   0.375E-04    0.428E-04
DAV:  10    -0.128081249731E+04   -0.84373E-06   -0.62550E-08  4448   0.298E-04    0.263E-04
DAV:  11    -0.128081249809E+04   -0.77979E-06   -0.35579E-08  4064   0.192E-04    0.165E-04
DAV:  12    -0.128081249871E+04   -0.61681E-06   -0.22827E-08  3808   0.132E-04    0.125E-04
DAV:  13    -0.128081249917E+04   -0.46412E-06   -0.16923E-08  3744   0.106E-04    0.919E-05
DAV:  14    -0.128081249940E+04   -0.23250E-06   -0.53959E-09  3392   0.708E-05    0.655E-05
DAV:  15    -0.128081249959E+04   -0.19220E-06   -0.53311E-09  3328   0.688E-05    0.428E-05
DAV:  16    -0.128081249970E+04   -0.10460E-06   -0.20895E-09  3328   0.532E-05    0.288E-05
DAV:  17    -0.128081249978E+04   -0.77998E-07   -0.21586E-09  3264   0.436E-05    0.224E-05
DAV:  18    -0.128081249981E+04   -0.28711E-07   -0.53981E-10  3264   0.389E-05    0.121E-05
DAV:  19    -0.128081249983E+04   -0.23880E-07   -0.80501E-11  3200   0.301E-05    0.114E-05
DAV:  20    -0.128081249984E+04   -0.11525E-07    0.47740E-10  3264   0.216E-05    0.124E-05
DAV:  21    -0.128081249985E+04   -0.40163E-08    0.71560E-10  3136   0.138E-05
   6 F= -.12994257E+04 E0= -.12994257E+04  d E =0.937941E-04  mag=    -0.0000
       N       E                     dE             d eps       ncg     rms          rms(c)
DAV:   1    -0.128081245959E+04    0.40249E-04   -0.11571E+00  5120   0.112E+00    0.184E-01
DAV:   2    -0.128081302144E+04   -0.56185E-03   -0.97255E-03  5696   0.111E-01    0.154E-01
DAV:   3    -0.128081289236E+04    0.12908E-03   -0.11914E-03  6400   0.531E-02    0.744E-02
DAV:   4    -0.128081287839E+04    0.13962E-04   -0.29454E-04  5760   0.290E-02    0.221E-02
DAV:   5    -0.128081286908E+04    0.93179E-05   -0.12857E-04  5536   0.208E-02    0.110E-02
DAV:   6    -0.128081286876E+04    0.31089E-06   -0.22390E-05  5728   0.592E-03    0.599E-03
DAV:   7    -0.128081286911E+04   -0.34185E-06   -0.38018E-06  6816   0.310E-03    0.360E-03
DAV:   8    -0.128081287036E+04   -0.12535E-05   -0.11242E-06  6144   0.192E-03    0.195E-03
DAV:   9    -0.128081287206E+04   -0.16986E-05   -0.49448E-07  6624   0.135E-03    0.107E-03
DAV:  10    -0.128081287404E+04   -0.19796E-05   -0.26107E-07  5376   0.801E-04    0.784E-04
DAV:  11    -0.128081287667E+04   -0.26307E-05   -0.19698E-07  5440   0.661E-04    0.523E-04
DAV:  12    -0.128081287848E+04   -0.18144E-05   -0.14520E-07  5504   0.547E-04    0.314E-04
DAV:  13    -0.128081287985E+04   -0.13634E-05   -0.66281E-08  4592   0.267E-04    0.257E-04
DAV:  14    -0.128081288075E+04   -0.90047E-06   -0.32674E-08  4400   0.171E-04    0.184E-04
DAV:  15    -0.128081288147E+04   -0.72291E-06   -0.23043E-08  4128   0.125E-04    0.972E-05
DAV:  16    -0.128081288186E+04   -0.39366E-06   -0.94130E-09  3648   0.939E-05    0.700E-05
DAV:  17    -0.128081288215E+04   -0.28823E-06   -0.70439E-09  3552   0.832E-05    0.741E-05
DAV:  18    -0.128081288226E+04   -0.10789E-06   -0.17916E-09  3328   0.644E-05    0.423E-05
DAV:  19    -0.128081288236E+04   -0.96654E-07   -0.20634E-09  3328   0.638E-05    0.433E-05
DAV:  20    -0.128081288239E+04   -0.33673E-07   -0.26833E-10  3328   0.396E-05    0.407E-05
DAV:  21    -0.128081288242E+04   -0.24636E-07    0.26975E-10  3264   0.316E-05    0.192E-05
DAV:  22    -0.128081288243E+04   -0.17360E-07    0.51072E-10  3264   0.270E-05    0.899E-06
DAV:  23    -0.128081288245E+04   -0.12660E-07    0.66033E-10  3232   0.190E-05    0.148E-05
DAV:  24    -0.128081288245E+04   -0.54570E-08    0.97940E-10  3136   0.127E-05
   7 F= -.12994265E+04 E0= -.12994265E+04  d E =-.830699E-03  mag=    -0.0000
       N       E                     dE             d eps       ncg     rms          rms(c)
DAV:   1    -0.128081210028E+04    0.78217E-03   -0.11512E+00  5120   0.115E+00    0.181E-01
DAV:   2    -0.128081307772E+04   -0.97744E-03   -0.12351E-02  5792   0.113E-01    0.145E-01
DAV:   3    -0.128081292308E+04    0.15464E-03   -0.10356E-03  6624   0.486E-02    0.805E-02
DAV:   4    -0.128081290301E+04    0.20075E-04   -0.42603E-04  5824   0.339E-02    0.243E-02
DAV:   5    -0.128081289000E+04    0.13013E-04   -0.17028E-04  5632   0.231E-02    0.114E-02
DAV:   6    -0.128081288991E+04    0.89174E-07   -0.25442E-05  5696   0.583E-03    0.697E-03
DAV:   7    -0.128081288985E+04    0.56782E-07   -0.57631E-06  6528   0.354E-03    0.433E-03
DAV:   8    -0.128081289004E+04   -0.18555E-06   -0.17244E-06  6176   0.232E-03    0.312E-03
DAV:   9    -0.128081289117E+04   -0.11332E-05   -0.10368E-06  6592   0.193E-03    0.107E-03
DAV:  10    -0.128081289312E+04   -0.19500E-05   -0.51908E-07  5440   0.106E-03    0.129E-03
DAV:  11    -0.128081289511E+04   -0.19944E-05   -0.19718E-07  5888   0.610E-04    0.715E-04
DAV:  12    -0.128081289785E+04   -0.27396E-05   -0.23279E-07  5392   0.684E-04    0.428E-04
DAV:  13    -0.128081289935E+04   -0.14986E-05   -0.72978E-08  4832   0.337E-04    0.223E-04
DAV:  14    -0.128081290050E+04   -0.11533E-05   -0.32046E-08  4128   0.176E-04    0.168E-04
DAV:  15    -0.128081290168E+04   -0.11774E-05   -0.28872E-08  3904   0.123E-04    0.943E-05
DAV:  16    -0.128081290231E+04   -0.62316E-06   -0.13806E-08  3616   0.101E-04    0.804E-05
DAV:  17    -0.128081290264E+04   -0.33069E-06   -0.45226E-09  3328   0.677E-05    0.630E-05
DAV:  18    -0.128081290280E+04   -0.15946E-06   -0.29373E-09  3328   0.652E-05    0.294E-05
DAV:  19    -0.128081290287E+04   -0.76150E-07   -0.20259E-09  3328   0.627E-05    0.340E-05
DAV:  20    -0.128081290291E+04   -0.36278E-07   -0.95108E-10  3264   0.469E-05    0.422E-05
DAV:  21    -0.128081290292E+04   -0.12442E-07    0.12816E-10  3264   0.309E-05    0.312E-05
DAV:  22    -0.128081290293E+04   -0.90222E-08    0.21271E-10  3200   0.334E-05
   8 F= -.12994262E+04 E0= -.12994262E+04  d E =0.345191E-03  mag=     0.0000
       N       E                     dE             d eps       ncg     rms          rms(c)
DAV:   1    -0.128081172951E+04    0.11734E-02   -0.11658E+00  5120   0.111E+00    0.324E-01
DAV:   2    -0.128081230452E+04   -0.57501E-03   -0.10499E-02  5824   0.120E-01    0.270E-01
DAV:   3    -0.128081216492E+04    0.13959E-03   -0.24481E-03  5888   0.101E-01    0.490E-02
DAV:   4    -0.128081213790E+04    0.27022E-04   -0.64089E-04  5568   0.409E-02    0.294E-02
DAV:   5    -0.128081213333E+04    0.45736E-05   -0.15190E-04  6208   0.165E-02    0.168E-02
DAV:   6    -0.128081213116E+04    0.21696E-05   -0.25984E-05  6880   0.771E-03    0.726E-03
DAV:   7    -0.128081213173E+04   -0.56955E-06   -0.33883E-06  6496   0.237E-03    0.362E-03
DAV:   8    -0.128081213354E+04   -0.18156E-05   -0.78002E-07  7008   0.140E-03    0.148E-03
DAV:   9    -0.128081213555E+04   -0.20041E-05   -0.25857E-07  5632   0.723E-04    0.889E-04
DAV:  10    -0.128081213845E+04   -0.29066E-05   -0.18786E-07  4992   0.504E-04    0.507E-04
DAV:  11    -0.128081214102E+04   -0.25611E-05   -0.15158E-07  4672   0.503E-04    0.310E-04
DAV:  12    -0.128081214317E+04   -0.21537E-05   -0.99202E-08  4560   0.280E-04    0.266E-04
DAV:  13    -0.128081214458E+04   -0.14085E-05   -0.40391E-08  4208   0.153E-04    0.171E-04
DAV:  14    -0.128081214560E+04   -0.10181E-05   -0.29388E-08  3952   0.140E-04    0.117E-04
DAV:  15    -0.128081214605E+04   -0.45780E-06   -0.64927E-09  3392   0.825E-05    0.689E-05
DAV:  16    -0.128081214636E+04   -0.30643E-06   -0.53718E-09  3328   0.774E-05    0.460E-05
DAV:  17    -0.128081214656E+04   -0.20221E-06   -0.47421E-09  3360   0.729E-05    0.408E-05
DAV:  18    -0.128081214664E+04   -0.80516E-07   -0.20284E-09  3264   0.554E-05    0.272E-05
DAV:  19    -0.128081214672E+04   -0.75452E-07   -0.14983E-09  3264   0.525E-05    0.251E-05
DAV:  20    -0.128081214674E+04   -0.22439E-07   -0.30076E-10  3264   0.363E-05    0.219E-05
DAV:  21    -0.128081214676E+04   -0.14887E-07    0.31493E-10  3200   0.259E-05    0.113E-05
DAV:  22    -0.128081214677E+04   -0.10579E-07    0.52571E-10  3200   0.208E-05    0.128E-05
DAV:  23    -0.128081214677E+04   -0.46130E-08    0.74781E-10  3200   0.127E-05
   9 F= -.12994255E+04 E0= -.12994255E+04  d E =0.679579E-03  mag=    -0.0000
       N       E                     dE             d eps       ncg     rms          rms(c)
DAV:   1    -0.128081202434E+04    0.12243E-03   -0.11410E+00  5120   0.112E+00    0.248E-01
DAV:   2    -0.128081294993E+04   -0.92559E-03   -0.11935E-02  5792   0.102E-01    0.181E-01
DAV:   3    -0.128081276398E+04    0.18595E-03   -0.13707E-03  6400   0.551E-02    0.795E-02
DAV:   4    -0.128081274951E+04    0.14466E-04   -0.32285E-04  5824   0.205E-02    0.318E-02
DAV:   5    -0.128081274464E+04    0.48778E-05   -0.11878E-04  5952   0.176E-02    0.128E-02
DAV:   6    -0.128081274709E+04   -0.24547E-05   -0.19559E-05  5696   0.609E-03    0.573E-03
DAV:   7    -0.128081275359E+04   -0.65042E-05   -0.59667E-06  7008   0.344E-03    0.288E-03
DAV:   8    -0.128081275784E+04   -0.42422E-05   -0.87324E-07  6112   0.134E-03    0.170E-03
DAV:   9    -0.128081276647E+04   -0.86345E-05   -0.10855E-06  5280   0.130E-03    0.149E-03
DAV:  10    -0.128081277341E+04   -0.69399E-05   -0.53073E-07  6432   0.771E-04    0.112E-03
DAV:  11    -0.128081278077E+04   -0.73615E-05   -0.94043E-07  5472   0.999E-04    0.773E-04
DAV:  12    -0.128081278508E+04   -0.43101E-05   -0.28554E-07  5216   0.540E-04    0.755E-04
DAV:  13    -0.128081278703E+04   -0.19484E-05   -0.10777E-07  5216   0.318E-04    0.309E-04
DAV:  14    -0.128081278933E+04   -0.22964E-05   -0.10828E-07  4608   0.235E-04    0.172E-04
DAV:  15    -0.128081279034E+04   -0.10176E-05   -0.26673E-08  4384   0.128E-04    0.107E-04
DAV:  16    -0.128081279123E+04   -0.88356E-06   -0.30246E-08  4416   0.133E-04    0.911E-05
DAV:  17    -0.128081279157E+04   -0.34127E-06   -0.48977E-09  3456   0.803E-05    0.809E-05
DAV:  18    -0.128081279173E+04   -0.15856E-06   -0.30285E-09  3264   0.796E-05    0.328E-05
DAV:  19    -0.128081279181E+04   -0.80880E-07   -0.19002E-09  3264   0.790E-05    0.326E-05
DAV:  20    -0.128081279187E+04   -0.65134E-07   -0.10339E-09  3264   0.575E-05    0.389E-05
DAV:  21    -0.128081279191E+04   -0.33164E-07    0.19803E-10  3232   0.362E-05    0.267E-05
DAV:  22    -0.128081279193E+04   -0.20387E-07    0.25185E-10  3200   0.323E-05    0.133E-05
DAV:  23    -0.128081279193E+04   -0.64611E-08    0.65696E-10  3232   0.181E-05
  10 F= -.12994263E+04 E0= -.12994263E+04  d E =-.798268E-03  mag=     0.0000
       N       E                     dE             d eps       ncg     rms          rms(c)
DAV:   1    -0.128081208593E+04    0.70599E-03   -0.60861E-01  5120   0.799E-01    0.144E-01
DAV:   2    -0.128081237616E+04   -0.29023E-03   -0.59310E-03  5952   0.765E-02    0.977E-02
DAV:   3    -0.128081225606E+04    0.12010E-03   -0.65843E-04  6464   0.360E-02    0.473E-02
DAV:   4    -0.128081224738E+04    0.86819E-05   -0.15459E-04  5696   0.151E-02    0.180E-02
DAV:   5    -0.128081224372E+04    0.36527E-05   -0.48950E-05  5600   0.115E-02    0.795E-03
DAV:   6    -0.128081224326E+04    0.46220E-06   -0.65495E-06  5664   0.351E-03    0.416E-03
DAV:   7    -0.128081224477E+04   -0.15047E-05   -0.29479E-06  6224   0.245E-03    0.254E-03
DAV:   8    -0.128081224615E+04   -0.13829E-05   -0.51832E-07  6496   0.115E-03    0.135E-03
DAV:   9    -0.128081224947E+04   -0.33157E-05   -0.32882E-07  5120   0.981E-04    0.770E-04
DAV:  10    -0.128081225246E+04   -0.29932E-05   -0.23941E-07  5664   0.684E-04    0.605E-04
DAV:  11    -0.128081225661E+04   -0.41491E-05   -0.28397E-07  4864   0.608E-04    0.339E-04
DAV:  12    -0.128081225861E+04   -0.19977E-05   -0.11502E-07  5056   0.337E-04    0.436E-04
DAV:  13    -0.128081225981E+04   -0.11996E-05   -0.39805E-08  4224   0.231E-04    0.167E-04
DAV:  14    -0.128081226099E+04   -0.11852E-05   -0.22799E-08  4128   0.141E-04    0.953E-05
DAV:  15    -0.128081226190E+04   -0.90654E-06   -0.20018E-08  3968   0.105E-04    0.953E-05
DAV:  16    -0.128081226223E+04   -0.32970E-06   -0.26630E-09  3328   0.660E-05    0.552E-05
DAV:  17    -0.128081226247E+04   -0.24230E-06   -0.36789E-09  3328   0.559E-05    0.444E-05
DAV:  18    -0.128081226257E+04   -0.96930E-07   -0.86129E-10  3264   0.466E-05    0.240E-05
DAV:  19    -0.128081226264E+04   -0.71741E-07   -0.11374E-09  3232   0.485E-05    0.286E-05
DAV:  20    -0.128081226265E+04   -0.15236E-07    0.85367E-11  3264   0.406E-05    0.229E-05
DAV:  21    -0.128081226266E+04   -0.90367E-08    0.47084E-10  3200   0.272E-05
  11 F= -.12994255E+04 E0= -.12994255E+04  d E =0.779911E-03  mag=    -0.0000
       N       E                     dE             d eps       ncg     rms          rms(c)
DAV:   1    -0.128081274555E+04   -0.48290E-03   -0.70156E-02  5376   0.687E-02    0.726E-02
DAV:   2    -0.128081272175E+04    0.23798E-04   -0.90829E-05  5600   0.457E-03    0.430E-02
DAV:   3    -0.128081272157E+04    0.18145E-06   -0.51356E-05  5984   0.287E-03    0.249E-03
DAV:   4    -0.128081272191E+04   -0.33707E-06   -0.94355E-07  6272   0.897E-04    0.150E-03
DAV:   5    -0.128081272248E+04   -0.57067E-06   -0.24735E-07  5120   0.499E-04    0.604E-04
DAV:   6    -0.128081272287E+04   -0.38797E-06   -0.41933E-08  4256   0.226E-04    0.308E-04
DAV:   7    -0.128081272325E+04   -0.38816E-06   -0.16782E-08  3552   0.120E-04    0.178E-04
DAV:   8    -0.128081272364E+04   -0.38203E-06   -0.13666E-08  3744   0.107E-04    0.960E-05
DAV:   9    -0.128081272397E+04   -0.32986E-06   -0.11351E-08  3584   0.101E-04    0.689E-05
DAV:  10    -0.128081272418E+04   -0.21390E-06   -0.79511E-09  3424   0.126E-04    0.418E-05
DAV:  11    -0.128081272433E+04   -0.15255E-06   -0.84861E-09  3584   0.123E-04    0.417E-05
DAV:  12    -0.128081272441E+04   -0.73647E-07   -0.31922E-09  3296   0.101E-04    0.242E-05
DAV:  13    -0.128081272447E+04   -0.69282E-07   -0.28448E-09  3264   0.771E-05    0.330E-05
DAV:  14    -0.128081272451E+04   -0.31519E-07   -0.61048E-10  3232   0.424E-05    0.208E-05
DAV:  15    -0.128081272452E+04   -0.17375E-07   -0.41441E-11  3264   0.308E-05    0.154E-05
DAV:  16    -0.128081272453E+04   -0.88912E-08    0.50776E-10  3104   0.209E-05
  12 F= -.12994261E+04 E0= -.12994261E+04  d E =-.549578E-03  mag=    -0.0000
       N       E                     dE             d eps       ncg     rms          rms(c)
DAV:   1    -0.128081311128E+04   -0.38675E-03   -0.73058E-02  5312   0.697E-02    0.103E-01
DAV:   2    -0.128081299183E+04    0.11945E-03   -0.24945E-04  5488   0.763E-03    0.581E-02
DAV:   3    -0.128081295612E+04    0.35707E-04   -0.18692E-04  5888   0.447E-03    0.710E-03
DAV:   4    -0.128081295579E+04    0.33178E-06   -0.60363E-06  5984   0.148E-03    0.445E-03
DAV:   5    -0.128081295608E+04   -0.28772E-06   -0.15181E-06  5728   0.114E-03    0.149E-03
DAV:   6    -0.128081295633E+04   -0.25329E-06   -0.15755E-07  6016   0.519E-04    0.623E-04
DAV:   7    -0.128081295655E+04   -0.21649E-06   -0.22614E-08  3968   0.173E-04    0.333E-04
DAV:   8    -0.128081295682E+04   -0.26872E-06   -0.10185E-08  3456   0.105E-04    0.148E-04
DAV:   9    -0.128081295700E+04   -0.18525E-06   -0.50080E-09  3264   0.636E-05    0.748E-05
DAV:  10    -0.128081295718E+04   -0.17659E-06   -0.50003E-09  3264   0.627E-05    0.581E-05
DAV:  11    -0.128081295734E+04   -0.15754E-06   -0.62684E-09  3488   0.562E-05    0.409E-05
DAV:  12    -0.128081295743E+04   -0.96057E-07   -0.28854E-09  3264   0.546E-05    0.216E-05
DAV:  13    -0.128081295749E+04   -0.55559E-07   -0.14292E-09  3264   0.511E-05    0.234E-05
DAV:  14    -0.128081295751E+04   -0.25451E-07   -0.55142E-10  3232   0.373E-05    0.149E-05
DAV:  15    -0.128081295753E+04   -0.20649E-07   -0.58254E-11  3200   0.290E-05    0.150E-05
DAV:  16    -0.128081295754E+04   -0.69267E-08    0.41832E-10  3264   0.209E-05
  13 F= -.12994262E+04 E0= -.12994262E+04  d E =-.133334E-03  mag=     0.0000
       N       E                     dE             d eps       ncg     rms          rms(c)
DAV:   1    -0.128081223667E+04    0.72087E-03   -0.52503E-02  5184   0.587E-02    0.700E-02
DAV:   2    -0.128081220633E+04    0.30342E-04   -0.20430E-04  6176   0.660E-03    0.389E-02
DAV:   3    -0.128081220153E+04    0.47926E-05   -0.94405E-05  6528   0.508E-03    0.668E-03
DAV:   4    -0.128081220116E+04    0.37201E-06   -0.50358E-06  6624   0.225E-03    0.349E-03
DAV:   5    -0.128081220168E+04   -0.51677E-06   -0.10381E-06  5664   0.123E-03    0.160E-03
DAV:   6    -0.128081220248E+04   -0.80193E-06   -0.23902E-07  5984   0.540E-04    0.645E-04
DAV:   7    -0.128081220319E+04   -0.71003E-06   -0.32045E-08  4096   0.192E-04    0.356E-04
DAV:   8    -0.128081220408E+04   -0.89187E-06   -0.34318E-08  4256   0.164E-04    0.194E-04
DAV:   9    -0.128081220477E+04   -0.68400E-06   -0.23171E-08  3968   0.127E-04    0.115E-04
DAV:  10    -0.128081220534E+04   -0.57927E-06   -0.20417E-08  3904   0.102E-04    0.822E-05
DAV:  11    -0.128081220567E+04   -0.32829E-06   -0.68211E-09  3520   0.647E-05    0.511E-05
DAV:  12    -0.128081220596E+04   -0.29005E-06   -0.97047E-09  3808   0.631E-05    0.392E-05
DAV:  13    -0.128081220610E+04   -0.13430E-06   -0.13559E-09  3392   0.424E-05    0.257E-05
DAV:  14    -0.128081220619E+04   -0.96770E-07   -0.12906E-09  3328   0.447E-05    0.207E-05
DAV:  15    -0.128081220623E+04   -0.36700E-07   -0.14043E-10  3328   0.359E-05    0.178E-05
DAV:  16    -0.128081220625E+04   -0.22934E-07    0.27262E-10  3232   0.255E-05    0.917E-06
DAV:  17    -0.128081220627E+04   -0.16007E-07    0.54062E-10  3232   0.213E-05    0.104E-05
DAV:  18    -0.128081220628E+04   -0.55734E-08    0.74712E-10  3232   0.132E-05
  14 F= -.12994255E+04 E0= -.12994255E+04  d E =0.643945E-03  mag=    -0.0000
       N       E                     dE             d eps       ncg     rms          rms(c)
DAV:   1    -0.128081267895E+04   -0.47268E-03   -0.67528E-02  5344   0.547E-02    0.704E-02
DAV:   2    -0.128081266215E+04    0.16797E-04   -0.13616E-04  5984   0.600E-03    0.419E-02
DAV:   3    -0.128081265652E+04    0.56330E-05   -0.63462E-05  6336   0.449E-03    0.580E-03
DAV:   4    -0.128081265637E+04    0.14967E-06   -0.42823E-06  6656   0.215E-03    0.250E-03
DAV:   5    -0.128081265661E+04   -0.24005E-06   -0.46832E-07  5216   0.715E-04    0.146E-03
DAV:   6    -0.128081265696E+04   -0.34677E-06   -0.16303E-07  5008   0.426E-04    0.541E-04
DAV:   7    -0.128081265714E+04   -0.18541E-06   -0.34571E-08  4480   0.236E-04    0.228E-04
DAV:   8    -0.128081265731E+04   -0.16435E-06   -0.87248E-09  3328   0.106E-04    0.143E-04
DAV:   9    -0.128081265745E+04   -0.14331E-06   -0.57273E-09  3424   0.672E-05    0.830E-05
DAV:  10    -0.128081265759E+04   -0.13562E-06   -0.53584E-09  3328   0.705E-05    0.535E-05
DAV:  11    -0.128081265766E+04   -0.71319E-07   -0.21864E-09  3264   0.434E-05    0.519E-05
DAV:  12    -0.128081265773E+04   -0.71814E-07   -0.27107E-09  3264   0.545E-05    0.252E-05
DAV:  13    -0.128081265777E+04   -0.35245E-07   -0.14505E-09  3264   0.406E-05    0.240E-05
DAV:  14    -0.128081265779E+04   -0.25437E-07   -0.81068E-10  3200   0.353E-05    0.148E-05
DAV:  15    -0.128081265781E+04   -0.17128E-07   -0.40590E-10  3200   0.296E-05    0.137E-05
DAV:  16    -0.128081265782E+04   -0.93423E-08    0.16814E-10  3136   0.213E-05
  15 F= -.12994260E+04 E0= -.12994260E+04  d E =-.500056E-03  mag=    -0.0000
       N       E                     dE             d eps       ncg     rms          rms(c)
DAV:   1    -0.128081329195E+04   -0.63414E-03   -0.72489E-02  5248   0.571E-02    0.944E-02
DAV:   2    -0.128081321853E+04    0.73417E-04   -0.21741E-04  5792   0.784E-03    0.548E-02
DAV:   3    -0.128081319323E+04    0.25303E-04   -0.16055E-04  6048   0.556E-03    0.758E-03
DAV:   4    -0.128081319270E+04    0.52847E-06   -0.72195E-06  6528   0.247E-03    0.393E-03
DAV:   5    -0.128081319301E+04   -0.31076E-06   -0.85578E-07  5632   0.107E-03    0.204E-03
DAV:   6    -0.128081319357E+04   -0.55846E-06   -0.31968E-07  5312   0.613E-04    0.678E-04
DAV:   7    -0.128081319384E+04   -0.27010E-06   -0.56047E-08  5024   0.298E-04    0.379E-04
DAV:   8    -0.128081319413E+04   -0.28757E-06   -0.13494E-08  3392   0.134E-04    0.201E-04
DAV:   9    -0.128081319435E+04   -0.21822E-06   -0.74454E-09  3488   0.946E-05    0.110E-04
DAV:  10    -0.128081319456E+04   -0.21000E-06   -0.73246E-09  3392   0.108E-04    0.726E-05
DAV:  11    -0.128081319469E+04   -0.13264E-06   -0.39266E-09  3328   0.628E-05    0.707E-05
DAV:  12    -0.128081319479E+04   -0.10518E-06   -0.34601E-09  3328   0.655E-05    0.361E-05
DAV:  13    -0.128081319487E+04   -0.73764E-07   -0.36858E-09  3328   0.612E-05    0.404E-05
DAV:  14    -0.128081319489E+04   -0.21435E-07   -0.16018E-09  3264   0.549E-05    0.307E-05
DAV:  15    -0.128081319491E+04   -0.24331E-07   -0.12097E-09  3200   0.485E-05    0.261E-05
DAV:  16    -0.128081319492E+04   -0.99099E-08   -0.27166E-10  3264   0.328E-05
  16 F= -.12994263E+04 E0= -.12994263E+04  d E =-.261663E-03  mag=    -0.0000
