       N       E                     dE             d eps       ncg     rms          rms(c)
DAV:   1    -0.137750389083E+04   -0.13775E+04   -0.13591E+00  6272   0.986E-01    0.952E-01
DAV:   2    -0.137926427554E+04   -0.17604E+01   -0.12111E+00  6080   0.959E-01    0.413E-01
DAV:   3    -0.137927416196E+04   -0.98864E-02   -0.43298E-02  6656   0.232E-01    0.279E-01
DAV:   4    -0.137927420377E+04   -0.41805E-04   -0.21846E-03  5504   0.579E-02    0.225E-01
DAV:   5    -0.137927420661E+04   -0.28392E-05   -0.20317E-04  6784   0.183E-02    0.189E-01
DAV:   6    -0.137927421697E+04   -0.10360E-04   -0.25148E-05  6592   0.739E-03    0.162E-01
DAV:   7    -0.137927422175E+04   -0.47826E-05   -0.23751E-05  6656   0.803E-03    0.131E-01
DAV:   8    -0.137927422601E+04   -0.42622E-05   -0.18481E-05  5984   0.669E-03    0.107E-01
DAV:   9    -0.137927423023E+04   -0.42186E-05   -0.57233E-06  4480   0.370E-03    0.907E-02
DAV:  10    -0.137927423479E+04   -0.45575E-05   -0.15154E-05  6112   0.618E-03    0.610E-02
DAV:  11    -0.137927423876E+04   -0.39719E-05   -0.36046E-05  6560   0.966E-03    0.211E-02
DAV:  12    -0.137927423999E+04   -0.12325E-05   -0.61165E-06  4800   0.340E-03    0.117E-02
DAV:  13    -0.137927424015E+04   -0.16094E-06   -0.73236E-07  3088   0.145E-03
   1 F= -.13987693E+04 E0= -.13987693E+04  d E =-.461263E-25  mag=     0.0000
