 vasp.5.4.4.18Apr17-6-g9f103f2a35 (build Mar 06 2019 16:23:31) complex          
  
 executed on             LinuxIFC date 2021.11.11  16:17:11
 running on  128 total cores
 distrk:  each k-point on  128 cores,    1 groups
 distr:  one band on NCORES_PER_BAND=  16 cores,    8 groups


--------------------------------------------------------------------------------------------------------


 INCAR:
 POTCAR:    PAW_PBE Zr_sv 04Jan2005               
 POTCAR:    PAW_PBE O 08Apr2002                   
 POTCAR:    PAW_PBE H 15Jun2001                   
 POTCAR:    PAW_PBE C 08Apr2002                   
 POTCAR:    PAW_PBE Zr_sv 04Jan2005               
   VRHFIN =Zr: 4s4p5s4d                                                         
   LEXCH  = PE                                                                  
   EATOM  =  1284.2219 eV,   94.3876 Ry                                         
                                                                                
   TITEL  = PAW_PBE Zr_sv 04Jan2005                                             
   LULTRA =        F    use ultrasoft PP ?                                      
   IUNSCR =        1    unscreen: 0-lin 1-nonlin 2-no                           
   RPACOR =    2.200    partial core radius                                     
   POMASS =   91.224; ZVAL   =   12.000    mass and valenz                      
   RCORE  =    2.500    outmost cutoff radius                                   
   RWIGS  =    3.070; RWIGS  =    1.625    wigner-seitz radius (au A)           
   ENMAX  =  229.898; ENMIN  =  172.424 eV                                      
   ICORE  =        3    local potential                                         
   LCOR   =        T    correct aug charges                                     
   LPAW   =        T    paw PP                                                  
   EAUG   =  461.257                                                            
   DEXC   =    0.000                                                            
   RMAX   =    2.561    core radius for proj-oper                               
   RAUG   =    1.300    factor for augmentation sphere                          
   RDEP   =    2.597    radius for radial grids                                 
   RDEPT  =    2.007    core radius for aug-charge                              
                                                                                
   Atomic configuration                                                         
   11 entries                                                                   
     n  l   j            E        occ.                                          
     1  0  0.50    -17820.0161   2.0000                                         
     2  0  0.50     -2467.0882   2.0000                                         
     2  1  1.50     -2199.6095   6.0000                                         
     3  0  0.50      -402.4863   2.0000                                         
     3  1  1.50      -315.3675   6.0000                                         
     3  2  2.50      -172.4472  10.0000                                         
     4  0  0.50       -52.4146   2.0000                                         
     5  0  0.50        -3.8421   1.0000                                         
     4  1  1.50       -30.5054   6.0000                                         
     4  2  2.50        -2.3341   3.0000                                         
     4  3  2.50        -1.3606   0.0000                                         
   Description                                                                  
     l       E           TYP  RCUT    TYP  RCUT                                 
     0    -52.4145962     23  2.200                                             
     0     -3.8421270     23  2.500                                             
     1    -30.5053914     23  2.200                                             
     1     20.4087390     23  2.200                                             
     2     -2.3340816     23  2.500                                             
     2     -0.6120942     23  2.500                                             
     3     -4.0817478     23  2.500                                             
  local pseudopotential read in
  partial core-charges read in
  partial kinetic energy density read in
  atomic valenz-charges read in
  non local Contribution for L=           0  read in
    real space projection operators read in
  non local Contribution for L=           0  read in
    real space projection operators read in
  non local Contribution for L=           1  read in
    real space projection operators read in
  non local Contribution for L=           1  read in
    real space projection operators read in
  non local Contribution for L=           2  read in
    real space projection operators read in
  non local Contribution for L=           2  read in
    real space projection operators read in
    PAW grid and wavefunctions read in
 
   number of l-projection  operators is LMAX  =           6
   number of lm-projection operators is LMMAX =          18
 
 POTCAR:    PAW_PBE O 08Apr2002                   
   VRHFIN =O: s2p4                                                              
   LEXCH  = PE                                                                  
   EATOM  =   432.3788 eV,   31.7789 Ry                                         
                                                                                
   TITEL  = PAW_PBE O 08Apr2002                                                 
   LULTRA =        F    use ultrasoft PP ?                                      
   IUNSCR =        1    unscreen: 0-lin 1-nonlin 2-no                           
   RPACOR =    1.200    partial core radius                                     
   POMASS =   16.000; ZVAL   =    6.000    mass and valenz                      
   RCORE  =    1.520    outmost cutoff radius                                   
   RWIGS  =    1.550; RWIGS  =    0.820    wigner-seitz radius (au A)           
   ENMAX  =  400.000; ENMIN  =  300.000 eV                                      
   ICORE  =        2    local potential                                         
   LCOR   =        T    correct aug charges                                     
   LPAW   =        T    paw PP                                                  
   EAUG   =  605.392                                                            
   DEXC   =    0.000                                                            
   RMAX   =    1.553    core radius for proj-oper                               
   RAUG   =    1.300    factor for augmentation sphere                          
   RDEP   =    1.550    radius for radial grids                                 
   RDEPT  =    1.329    core radius for aug-charge                              
                                                                                
   Atomic configuration                                                         
    4 entries                                                                   
     n  l   j            E        occ.                                          
     1  0  0.50      -514.6923   2.0000                                         
     2  0  0.50       -23.9615   2.0000                                         
     2  1  0.50        -9.0305   4.0000                                         
     3  2  1.50        -9.5241   0.0000                                         
   Description                                                                  
     l       E           TYP  RCUT    TYP  RCUT                                 
     0    -23.9615318     23  1.200                                             
     0     -9.5240782     23  1.200                                             
     1     -9.0304911     23  1.520                                             
     1      8.1634956     23  1.520                                             
     2     -9.5240782      7  1.500                                             
  local pseudopotential read in
  partial core-charges read in
  partial kinetic energy density read in
  kinetic energy density of atom read in
  atomic valenz-charges read in
  non local Contribution for L=           0  read in
    real space projection operators read in
  non local Contribution for L=           0  read in
    real space projection operators read in
  non local Contribution for L=           1  read in
    real space projection operators read in
  non local Contribution for L=           1  read in
    real space projection operators read in
    PAW grid and wavefunctions read in
 
   number of l-projection  operators is LMAX  =           4
   number of lm-projection operators is LMMAX =           8
 
 POTCAR:    PAW_PBE H 15Jun2001                   
   VRHFIN =H: ultrasoft test                                                    
   LEXCH  = PE                                                                  
   EATOM  =    12.4884 eV,    0.9179 Ry                                         
                                                                                
   TITEL  = PAW_PBE H 15Jun2001                                                 
   LULTRA =        F    use ultrasoft PP ?                                      
   IUNSCR =        0    unscreen: 0-lin 1-nonlin 2-no                           
   RPACOR =    0.000    partial core radius                                     
   POMASS =    1.000; ZVAL   =    1.000    mass and valenz                      
   RCORE  =    1.100    outmost cutoff radius                                   
   RWIGS  =    0.700; RWIGS  =    0.370    wigner-seitz radius (au A)           
   ENMAX  =  250.000; ENMIN  =  200.000 eV                                      
   RCLOC  =    0.701    cutoff for local pot                                    
   LCOR   =        T    correct aug charges                                     
   LPAW   =        T    paw PP                                                  
   EAUG   =  400.000                                                            
   RMAX   =    1.123    core radius for proj-oper                               
   RAUG   =    1.200    factor for augmentation sphere                          
   RDEP   =    1.112    radius for radial grids                                 
   RDEPT  =    0.926    core radius for aug-charge                              
                                                                                
   Atomic configuration                                                         
    2 entries                                                                   
     n  l   j            E        occ.                                          
     1  0  0.50        -6.4927   1.0000                                         
     2  1  0.50        -3.4015   0.0000                                         
   Description                                                                  
     l       E           TYP  RCUT    TYP  RCUT                                 
     0     -6.4927494     23  1.100                                             
     0      6.8029130     23  1.100                                             
     1     -4.0817478     23  1.100                                             
  local pseudopotential read in
  atomic valenz-charges read in
  non local Contribution for L=           0  read in
    real space projection operators read in
  non local Contribution for L=           0  read in
    real space projection operators read in
  non local Contribution for L=           1  read in
    real space projection operators read in
    PAW grid and wavefunctions read in
 
   number of l-projection  operators is LMAX  =           3
   number of lm-projection operators is LMMAX =           5
 
 POTCAR:    PAW_PBE C 08Apr2002                   
   VRHFIN =C: s2p2                                                              
   LEXCH  = PE                                                                  
   EATOM  =   147.1560 eV,   10.8157 Ry                                         
                                                                                
   TITEL  = PAW_PBE C 08Apr2002                                                 
   LULTRA =        F    use ultrasoft PP ?                                      
   IUNSCR =        1    unscreen: 0-lin 1-nonlin 2-no                           
   RPACOR =    1.200    partial core radius                                     
   POMASS =   12.011; ZVAL   =    4.000    mass and valenz                      
   RCORE  =    1.500    outmost cutoff radius                                   
   RWIGS  =    1.630; RWIGS  =    0.863    wigner-seitz radius (au A)           
   ENMAX  =  400.000; ENMIN  =  300.000 eV                                      
   ICORE  =        2    local potential                                         
   LCOR   =        T    correct aug charges                                     
   LPAW   =        T    paw PP                                                  
   EAUG   =  644.873                                                            
   DEXC   =    0.000                                                            
   RMAX   =    1.529    core radius for proj-oper                               
   RAUG   =    1.300    factor for augmentation sphere                          
   RDEP   =    1.501    radius for radial grids                                 
   RDEPT  =    1.300    core radius for aug-charge                              
                                                                                
   Atomic configuration                                                         
    4 entries                                                                   
     n  l   j            E        occ.                                          
     1  0  0.50      -273.3789   2.0000                                         
     2  0  0.50       -13.7508   2.0000                                         
     2  1  0.50        -5.2854   2.0000                                         
     3  2  1.50        -5.4423   0.0000                                         
   Description                                                                  
     l       E           TYP  RCUT    TYP  RCUT                                 
     0    -13.7508458     23  1.200                                             
     0     -8.2022199     23  1.200                                             
     1     -5.2854383     23  1.500                                             
     1     34.0145650     23  1.500                                             
     2     -5.4423304      7  1.500                                             
  local pseudopotential read in
  partial core-charges read in
  partial kinetic energy density read in
  atomic valenz-charges read in
  non local Contribution for L=           0  read in
    real space projection operators read in
  non local Contribution for L=           0  read in
    real space projection operators read in
  non local Contribution for L=           1  read in
    real space projection operators read in
  non local Contribution for L=           1  read in
    real space projection operators read in
    PAW grid and wavefunctions read in
 
   number of l-projection  operators is LMAX  =           4
   number of lm-projection operators is LMMAX =           8
 
 Optimization of the real space projectors (new method)

 maximal supplied QI-value         = 15.12
 optimisation between [QCUT,QGAM] = [ 11.34, 22.83] = [ 36.00,145.93] Ry 
 Optimized for a Real-space Cutoff    1.47 Angstroem

   l    n(q)    QCUT    max X(q) W(low)/X(q) W(high)/X(q)  e(spline) 
   0     10    11.338    12.107    0.38E-04    0.13E-04    0.27E-07
   0     10    11.338     9.948    0.69E-04    0.30E-04    0.38E-07
   1     10    11.338     3.563    0.26E-04    0.18E-04    0.40E-07
   1     10    11.338     4.524    0.25E-03    0.39E-04    0.44E-06
   2      9    11.338    87.261    0.26E-03    0.91E-05    0.26E-06
   2      9    11.338    70.950    0.25E-03    0.91E-05    0.25E-06
 Optimization of the real space projectors (new method)

 maximal supplied QI-value         = 24.76
 optimisation between [QCUT,QGAM] = [ 11.39, 22.77] = [ 36.31,145.25] Ry 
 Optimized for a Real-space Cutoff    1.00 Angstroem

   l    n(q)    QCUT    max X(q) W(low)/X(q) W(high)/X(q)  e(spline) 
   0      7    11.387    20.381    0.39E-03    0.13E-02    0.15E-06
   0      7    11.387    15.268    0.42E-03    0.14E-02    0.17E-06
   1      6    11.387     5.964    0.41E-03    0.11E-02    0.17E-06
   1      6    11.387     5.382    0.39E-03    0.87E-03    0.15E-06
 Optimization of the real space projectors (new method)

 maximal supplied QI-value         = 34.20
 optimisation between [QCUT,QGAM] = [ 11.29, 22.57] = [ 35.68,142.71] Ry 
 Optimized for a Real-space Cutoff    1.16 Angstroem

   l    n(q)    QCUT    max X(q) W(low)/X(q) W(high)/X(q)  e(spline) 
   0      8    11.287    19.460    0.40E-03    0.73E-03    0.16E-06
   0      8    11.287    12.209    0.38E-03    0.70E-03    0.15E-06
   1      7    11.287     4.655    0.22E-03    0.25E-04    0.22E-06
 Optimization of the real space projectors (new method)

 maximal supplied QI-value         = 25.13
 optimisation between [QCUT,QGAM] = [ 11.31, 22.87] = [ 35.82,146.48] Ry 
 Optimized for a Real-space Cutoff    1.00 Angstroem

   l    n(q)    QCUT    max X(q) W(low)/X(q) W(high)/X(q)  e(spline) 
   0      7    11.310   115.676    0.43E-03    0.13E-02    0.19E-06
   0      7    11.310    87.132    0.43E-03    0.13E-02    0.18E-06
   1      6    11.310     4.429    0.42E-03    0.74E-03    0.11E-06
   1      6    11.310     2.733    0.34E-03    0.55E-03    0.92E-07
  PAW_PBE Zr_sv 04Jan2005               :
 energy of atom  1       EATOM=-1284.2219
 kinetic energy error for atom=    0.0049 (will be added to EATOM!!)
  PAW_PBE O 08Apr2002                   :
 energy of atom  2       EATOM= -432.3788
 kinetic energy error for atom=    0.0224 (will be added to EATOM!!)
  PAW_PBE H 15Jun2001                   :
 energy of atom  3       EATOM=  -12.4884
 kinetic energy error for atom=    0.0020 (will be added to EATOM!!)
  PAW_PBE C 08Apr2002                   :
 energy of atom  4       EATOM= -147.1560
 kinetic energy error for atom=    0.0076 (will be added to EATOM!!)
 
 
 POSCAR: Zr   O    H    C                        
  positions in direct lattice
  velocities in cartesian coordinates
  No initial velocities read in
 exchange correlation table for  LEXCH =        8
   RHO(1)=    0.500       N(1)  =     2000
   RHO(2)=  100.500       N(2)  =     4000

 VTST: version 3.2, (02/03/18)

 CHAIN: initializing optimizer
 
 OPT: Using Conjugate-Gradient optimizer
 OPT: CG, Init
 OPT: CG, FDSTEP      0.005000
 OPT: CG, MAXMOVE      0.200000
 
 CHAIN: Read ICHAIN            2
 
 POSCAR: Zr   O    H    C                        
  positions in direct lattice
  velocities in cartesian coordinates
  No initial velocities read in
 CHAIN: Running the Dimer method

 Dimer: -----------------
 Dimer: Input Parameters
 Dimer:   Seed      0
 Dimer: RotMax      4
 Dimer:     dR      0.005000
 Dimer:  FNMax      1.000000
 Dimer:  FNMin      0.010000
 Dimer: -----------------
 


--------------------------------------------------------------------------------------------------------


 ion  position               nearest neighbor table
   1  0.088  0.321  0.038-  78 2.10  62 2.10  50 2.18  74 2.19  61 2.26  54 2.30  16 3.37   6 3.50
                            12 3.52  13 3.65
   2  0.338  0.821  0.038-  79 2.10  63 2.10  51 2.18  75 2.19  58 2.26  55 2.30  13 3.37   7 3.50
                             9 3.52  14 3.65
   3  0.588  0.321  0.038-  80 2.10  64 2.10  52 2.18  76 2.19  59 2.26  56 2.30  14 3.37   8 3.50
                            10 3.52  15 3.65
   4  0.838  0.821  0.038-  81 2.10  65 2.10  53 2.18  77 2.19  60 2.26  57 2.30  15 3.37   5 3.50
                            11 3.52  16 3.65
   5  0.070  0.834  0.049-  82 2.07  66 2.10  65 2.18  58 2.19  57 2.22  70 2.30  12 3.37  17 3.47
                             4 3.50  16 3.52   9 3.65
   6  0.320  0.334  0.049-  83 2.06  67 2.10  62 2.18  59 2.19  54 2.22  71 2.30   9 3.37  18 3.48
                             1 3.50  13 3.52  10 3.65
   7  0.570  0.834  0.049-  84 2.06  68 2.10  63 2.18  60 2.19  55 2.22  72 2.30  10 3.37  19 3.49
                             2 3.50  14 3.52  11 3.65
   8  0.820  0.334  0.049-  85 2.08  69 2.10  64 2.18  61 2.19  56 2.22  73 2.30  11 3.37   3 3.50
                            20 3.51  15 3.52  12 3.65
   9  0.238  0.068  0.057-  62 2.10  86 2.17  67 2.18  70 2.19  75 2.22  58 2.30   6 3.37  17 3.48
                            14 3.50  22 3.52   2 3.52   5 3.65
  10  0.488  0.568  0.057-  63 2.10  87 2.18  68 2.18  71 2.19  76 2.22  59 2.30   7 3.37  18 3.48
                            15 3.50   3 3.52  23 3.52   6 3.65
  11  0.738  0.068  0.057-  64 2.10  69 2.18  88 2.18  72 2.19  77 2.22  60 2.30   8 3.37  19 3.47
                            16 3.50  24 3.52   4 3.52   7 3.65
  12  0.988  0.568  0.057-  65 2.10  66 2.18  89 2.18  73 2.19  74 2.22  61 2.30   5 3.37  13 3.50
                             1 3.52  21 3.53  20 3.54   8 3.65
  13  0.220  0.581  0.068-  51 2.10  66 2.10  79 2.18  54 2.19  71 2.26  90 2.26  74 2.30   2 3.37
                            21 3.50  26 3.50  12 3.50  18 3.50   6 3.52   1 3.65
  14  0.470  0.081  0.068-  52 2.10  67 2.10  80 2.18  55 2.19  72 2.26  91 2.27  75 2.30   3 3.37
                            27 3.49  22 3.49   9 3.50  19 3.51   7 3.52   2 3.65
  15  0.720  0.581  0.068-  53 2.10  68 2.10  81 2.18  56 2.19  73 2.26  92 2.26  76 2.30   4 3.37
                            23 3.49  28 3.50  10 3.50   8 3.52  20 3.54   3 3.65
  16  0.970  0.081  0.068-  50 2.10  69 2.10  78 2.18  57 2.19  70 2.26  93 2.26  77 2.30   1 3.37
                            24 3.49  17 3.50  11 3.50  25 3.50   5 3.52   4 3.65
  17  0.106  0.983  0.171-  94 2.09 110 2.13  82 2.16  70 2.19 106 2.20  93 2.23  86 2.30  32 3.39
                             5 3.47   9 3.48  16 3.50  22 3.52  25 3.54  29 3.67
  18  0.356  0.484  0.171-  95 2.09 111 2.13  83 2.16  71 2.19 107 2.20  90 2.22  87 2.30  29 3.37
                             6 3.48  10 3.48  13 3.50  23 3.52  26 3.54  30 3.65
  19  0.608  0.985  0.171-  96 2.09 112 2.15  84 2.18  72 2.19 108 2.20  91 2.23  88 2.28  30 3.39
                            11 3.47   7 3.49  24 3.49  14 3.51  27 3.52  31 3.70
  20  0.855  0.483  0.173-  97 2.10 113 2.11  85 2.18 109 2.19  92 2.23  73 2.24  89 2.33  31 3.31
                            28 3.51   8 3.51  21 3.53  15 3.54  12 3.54  32 3.65
  21  0.089  0.495  0.183- 114 2.09  98 2.11  97 2.17  90 2.18  74 2.24  89 2.27 102 2.29  25 3.37
                            13 3.50  32 3.51  12 3.53  20 3.53  26 3.63  33 3.63
  22  0.339  0.995  0.182- 115 2.10  99 2.11  94 2.17  91 2.19  75 2.24 103 2.26  86 2.27  26 3.38
                            14 3.49  29 3.51   9 3.52  17 3.52  34 3.61  27 3.62
  23  0.589  0.493  0.182- 100 2.08 116 2.11  95 2.17  92 2.18  76 2.23  87 2.29 104 2.31  27 3.36
                            15 3.49  35 3.51  18 3.52  10 3.52  30 3.56  28 3.69
  24  0.839  0.996  0.183- 117 2.10 101 2.11  93 2.18  96 2.18  77 2.25  88 2.26 105 2.29  28 3.37
                            19 3.49  16 3.49  11 3.52  31 3.54  36 3.63  25 3.64
  25  0.005  0.231  0.191-  78 2.10  97 2.10 121 2.18  98 2.19 105 2.20 106 2.29  93 2.30  21 3.37
                            37 3.45  16 3.50  17 3.54  29 3.55  24 3.64  36 3.66
  26  0.253  0.730  0.191-  94 2.10  79 2.10 102 2.18  99 2.20 118 2.20 107 2.29  90 2.29  22 3.38
                            38 3.45  13 3.50  18 3.54  30 3.55  21 3.63  33 3.65
  27  0.504  0.229  0.191-  80 2.09  95 2.11 100 2.18 119 2.19 103 2.19  91 2.29 108 2.29  23 3.36
                            39 3.46  14 3.49  19 3.52  31 3.59  22 3.62  34 3.66
  28  0.757  0.730  0.191-  81 2.08  96 2.11 101 2.16 120 2.22 104 2.23 109 2.24  92 2.30  24 3.37
                            35 3.50  15 3.50  32 3.50  20 3.51  40 3.54  23 3.69
  29  0.240  0.242  0.201-  98 2.10  83 2.10 122 2.19 103 2.21 111 2.21  86 2.23 106 2.29  18 3.37
                            37 3.42  42 3.50  22 3.51  25 3.55  34 3.63  17 3.67
  30  0.488  0.743  0.200-  99 2.08  84 2.09 112 2.19 123 2.20  87 2.22 104 2.25 107 2.29  19 3.39
                            38 3.44  43 3.49  35 3.51  26 3.55  23 3.56  18 3.65
  31  0.741  0.246  0.204-  85 2.11 113 2.12 100 2.12 105 2.21 124 2.24  88 2.30 108 2.32  20 3.31
                            39 3.43  24 3.54  44 3.59  27 3.59  36 3.62  19 3.70
  32  0.989  0.741  0.202- 101 2.11  82 2.13 110 2.19 125 2.21 102 2.21  89 2.22 109 2.27  17 3.39
                            41 3.47  40 3.49  28 3.50  21 3.51  33 3.63  20 3.65
  33  0.123  0.641  0.314- 142 2.02 126 2.16 138 2.18 114 2.21 125 2.25 118 2.37 102 2.42  45 3.23
                            41 3.48  38 3.54  32 3.63  21 3.63  26 3.65  46 3.72
  34  0.371  0.140  0.313- 143 2.03 127 2.14 139 2.19 115 2.20 122 2.24 119 2.35 103 2.43  46 3.23
                            42 3.49  39 3.53  22 3.61  29 3.63  27 3.66  47 3.67
  35  0.623  0.648  0.305- 128 2.15 140 2.15 144 2.20 116 2.20 123 2.20 104 2.21 120 2.25  49 3.30
                            47 3.41  43 3.44  28 3.50  30 3.51  23 3.51  40 3.56  48 3.71
  36  0.874  0.141  0.314- 145 2.04 129 2.13 141 2.13 117 2.23 124 2.28 105 2.39 121 2.42  48 3.22
                            44 3.44  37 3.54  31 3.62  24 3.63  25 3.66  45 3.73
  37  0.109  0.162  0.312- 130 2.09 121 2.14 106 2.16 122 2.16 129 2.17 134 2.17  29 3.42  25 3.45
                            41 3.45  45 3.51  36 3.54  42 3.59
  38  0.358  0.660  0.313- 131 2.10 126 2.15 107 2.15 118 2.16 123 2.17 135 2.17  30 3.44  42 3.44
                            26 3.45  46 3.53  33 3.54  43 3.59
  39  0.606  0.159  0.313- 136 2.10 132 2.11 108 2.15 127 2.16 124 2.17 119 2.20  31 3.43  43 3.44
                            27 3.46  47 3.47  34 3.53  44 3.67
  40  0.859  0.662  0.318- 133 2.11 125 2.18 120 2.20 146 2.22 137 2.22 128 2.25 109 2.27  32 3.49
                            44 3.51  48 3.51  28 3.54  35 3.56  41 3.60  49 3.71
  41  0.027  0.889  0.324- 110 2.05 138 2.15 129 2.16 137 2.18 130 2.20 125 2.30  37 3.45  32 3.47
                            33 3.48  46 3.50  40 3.60
  42  0.275  0.389  0.325- 111 2.06 139 2.13 126 2.14 131 2.24 134 2.26 122 2.29  38 3.44  34 3.49
                            29 3.50  47 3.51  37 3.59
  43  0.525  0.888  0.325- 112 2.06 127 2.14 140 2.16 132 2.18 135 2.26 123 2.29  35 3.44  39 3.44
                            30 3.49  48 3.55  38 3.59
  44  0.780  0.384  0.335- 147 2.08 141 2.13 133 2.16 128 2.25 113 2.26 124 2.28 136 2.52  49 3.31
                            36 3.44  45 3.47  40 3.51  31 3.59  39 3.67
  45  0.010  0.408  0.336- 142 2.03 114 2.07 133 2.15 141 2.24 121 2.30 134 2.30  33 3.23  44 3.47
                            37 3.51  36 3.73
  46  0.259  0.907  0.336- 143 2.02 115 2.07 130 2.15 138 2.28 118 2.30 135 2.30  34 3.23  41 3.50
                            38 3.53  33 3.72
  47  0.508  0.402  0.334- 116 2.06 136 2.14 131 2.16 144 2.21 119 2.24 139 2.25  35 3.41  39 3.47
                            42 3.51  34 3.67  49 3.89
  48  0.760  0.909  0.336- 145 2.00 117 2.05 132 2.17 137 2.25 120 2.31 140 2.36  36 3.22  40 3.51
                            43 3.55  35 3.71
  49  0.695  0.554  0.424- 147 1.94 159 1.95 144 2.11 146 2.20 128 2.37 167 2.62 166 2.84  35 3.30
                            44 3.31  40 3.71  47 3.89
  50  0.024  0.173  0.000-  16 2.10   1 2.18
  51  0.274  0.673  0.000-  13 2.10   2 2.18
  52  0.524  0.173  0.000-  14 2.10   3 2.18
  53  0.774  0.673  0.000-  15 2.10   4 2.18
  54  0.215  0.432  0.016-  13 2.19   6 2.22   1 2.30
  55  0.465  0.932  0.016-  14 2.19   7 2.22   2 2.30
  56  0.715  0.432  0.016-  15 2.19   8 2.22   3 2.30
  57  0.965  0.932  0.016-  16 2.19   5 2.22   4 2.30
  58  0.207  0.891  0.025-   5 2.19   2 2.26   9 2.30
  59  0.457  0.391  0.025-   6 2.19   3 2.26  10 2.30
  60  0.707  0.891  0.025-   7 2.19   4 2.26  11 2.30
  61  0.957  0.391  0.025-   8 2.19   1 2.26  12 2.30
  62  0.197  0.226  0.044-   9 2.10   1 2.10   6 2.18
  63  0.447  0.726  0.044-  10 2.10   2 2.10   7 2.18
  64  0.697  0.226  0.044-  11 2.10   3 2.10   8 2.18
  65  0.947  0.726  0.044-  12 2.10   4 2.10   5 2.18
  66  0.111  0.675  0.062-   5 2.10  13 2.10  12 2.18
  67  0.361  0.175  0.062-   6 2.10  14 2.10   9 2.18
  68  0.611  0.675  0.062-   7 2.10  15 2.10  10 2.18
  69  0.861  0.175  0.062-   8 2.10  16 2.10  11 2.18
  70  0.101  0.010  0.081-  17 2.19   9 2.19  16 2.26   5 2.30
  71  0.351  0.510  0.081-  18 2.19  10 2.19  13 2.26   6 2.30
  72  0.601  0.010  0.081-  19 2.19  11 2.19  14 2.26   7 2.30
  73  0.851  0.510  0.081-  12 2.19  20 2.24  15 2.26   8 2.30
  74  0.093  0.470  0.090-   1 2.19  12 2.22  21 2.24  13 2.30
  75  0.343  0.970  0.090-   2 2.19   9 2.22  22 2.24  14 2.30
  76  0.593  0.470  0.090-   3 2.19  10 2.22  23 2.23  15 2.30
  77  0.843  0.970  0.090-   4 2.19  11 2.22  24 2.25  16 2.30
  78  0.034  0.229  0.106-   1 2.10  25 2.10  16 2.18
  79  0.284  0.729  0.106-   2 2.10  26 2.10  13 2.18
  80  0.534  0.229  0.106-  27 2.09   3 2.10  14 2.18
  81  0.784  0.729  0.106-  28 2.08   4 2.10  15 2.18
  82  0.046  0.833  0.134-   5 2.07  32 2.13  17 2.16
  83  0.296  0.334  0.134-   6 2.06  29 2.10  18 2.16
  84  0.546  0.834  0.133-   7 2.06  30 2.09  19 2.18
  85  0.796  0.333  0.134-   8 2.08  31 2.11  20 2.18
  86  0.231  0.093  0.146-   9 2.17  29 2.23  22 2.27  17 2.30
  87  0.482  0.594  0.147-  10 2.18  30 2.22  23 2.29  18 2.30
  88  0.732  0.094  0.147-  11 2.18  24 2.26  19 2.28  31 2.30
  89  0.982  0.593  0.147-  12 2.18  32 2.22  21 2.27  20 2.33
  90  0.226  0.552  0.161-  21 2.18  18 2.22  13 2.26  26 2.29
  91  0.476  0.051  0.161-  22 2.19  19 2.23  14 2.27  27 2.29
  92  0.725  0.552  0.161-  23 2.18  20 2.23  15 2.26  28 2.30
  93  0.975  0.053  0.161-  24 2.18  17 2.23  16 2.26  25 2.30
  94  0.215  0.890  0.181-  17 2.09  26 2.10  22 2.17
  95  0.465  0.390  0.181-  18 2.09  27 2.11  23 2.17
  96  0.715  0.890  0.181-  19 2.09  28 2.11  24 2.18
  97  0.965  0.391  0.182-  20 2.10  25 2.10  21 2.17
  98  0.130  0.335  0.192-  29 2.10  21 2.11  25 2.19
  99  0.379  0.835  0.193-  30 2.08  22 2.11  26 2.20
 100  0.628  0.335  0.194-  23 2.08  31 2.12  27 2.18
 101  0.880  0.837  0.194-  24 2.11  32 2.11  28 2.16
 102  0.118  0.671  0.215-  26 2.18  32 2.21  21 2.29  33 2.42
 103  0.367  0.170  0.213-  27 2.19  29 2.21  22 2.26  34 2.43
 104  0.618  0.671  0.214-  35 2.21  28 2.23  30 2.25  23 2.31
 105  0.868  0.171  0.216-  25 2.20  31 2.21  24 2.29  36 2.39
 106  0.115  0.131  0.224-  37 2.16  17 2.20  29 2.29  25 2.29
 107  0.364  0.631  0.224-  38 2.15  18 2.20  26 2.29  30 2.29
 108  0.615  0.132  0.225-  39 2.15  19 2.20  27 2.29  31 2.32
 109  0.864  0.632  0.225-  20 2.19  28 2.24  40 2.27  32 2.27
 110  0.047  0.894  0.240-  41 2.05  17 2.13  32 2.19
 111  0.297  0.396  0.241-  42 2.06  18 2.13  29 2.21
 112  0.547  0.894  0.240-  43 2.06  19 2.15  30 2.19
 113  0.795  0.395  0.241-  20 2.11  31 2.12  44 2.26
 114  0.069  0.492  0.269-  45 2.07  21 2.09  33 2.21
 115  0.315  0.993  0.268-  46 2.07  22 2.10  34 2.20
 116  0.562  0.494  0.269-  47 2.06  23 2.11  35 2.20
 117  0.812  0.995  0.268-  48 2.05  24 2.10  36 2.23
 118  0.251  0.750  0.283-  38 2.16  26 2.20  46 2.30  33 2.37
 119  0.497  0.250  0.282-  27 2.19  39 2.20  47 2.24  34 2.35
 120  0.750  0.750  0.283-  40 2.20  28 2.22  35 2.25  48 2.31
 121  0.004  0.252  0.282-  37 2.14  25 2.18  45 2.30  36 2.42
 122  0.246  0.215  0.291-  37 2.16  29 2.19  34 2.24  42 2.29
 123  0.494  0.713  0.290-  38 2.17  35 2.20  30 2.20  43 2.29
 124  0.744  0.216  0.296-  39 2.17  31 2.24  44 2.28  36 2.28
 125  0.995  0.712  0.293-  40 2.18  32 2.21  33 2.25  41 2.30
 126  0.239  0.555  0.329-  42 2.14  38 2.15  33 2.16
 127  0.486  0.053  0.327-  43 2.14  34 2.14  39 2.16
 128  0.731  0.553  0.328-  35 2.15  40 2.25  44 2.25  49 2.37
 129  0.989  0.056  0.328-  36 2.13  41 2.16  37 2.17
 130  0.147  0.004  0.331-  37 2.09  46 2.15  41 2.20
 131  0.398  0.505  0.334-  38 2.10  47 2.16  42 2.24
 132  0.644  0.001  0.334-  39 2.11  48 2.17  43 2.18
 133  0.896  0.500  0.327-  40 2.11  45 2.15  44 2.16
 134  0.137  0.321  0.352-  37 2.17  42 2.26  45 2.30
 135  0.386  0.821  0.350-  38 2.17  43 2.26  46 2.30
 136  0.620  0.314  0.353-  39 2.10  47 2.14  44 2.52
 137  0.890  0.834  0.346-  41 2.18  40 2.22  48 2.25
 138  0.132  0.800  0.356-  41 2.15  33 2.18  46 2.28
 139  0.381  0.300  0.356-  42 2.13  34 2.19  47 2.25
 140  0.629  0.794  0.355-  35 2.15  43 2.16  48 2.36
 141  0.890  0.295  0.356-  44 2.13  36 2.13  45 2.24
 142  0.065  0.545  0.375-  33 2.02  45 2.03
 143  0.315  0.043  0.375-  46 2.02  34 2.03
 144  0.577  0.546  0.377-  49 2.11  35 2.20  47 2.21
 145  0.816  0.042  0.375-  48 2.00  36 2.04
 146  0.814  0.666  0.406- 148 0.97  49 2.20  40 2.22
 147  0.757  0.422  0.418-  49 1.94  44 2.08
 148  0.844  0.724  0.428- 146 0.97
 149  0.355  0.739  0.500- 164 1.10
 150  0.444  0.594  0.542- 163 1.10
 151  0.308  0.506  0.452- 162 1.10
 152  0.470  0.548  0.474- 163 1.10
 153  0.233  0.610  0.455- 162 1.10
 154  0.273  0.554  0.517- 162 1.10
 155  0.526  0.777  0.522- 165 1.11
 156  0.386  0.699  0.433- 164 1.11
 157  0.547  0.737  0.453- 165 1.10
 158  0.621  0.617  0.554- 166 1.09
 159  0.612  0.513  0.485-  49 1.95
 160  0.706  0.780  0.467- 167 1.09
 161  0.766  0.705  0.521- 167 1.09
 162  0.292  0.580  0.475- 153 1.10 154 1.10 151 1.10 164 1.53
 163  0.456  0.621  0.498- 152 1.10 150 1.10 165 1.53 164 1.53
 164  0.372  0.666  0.475- 149 1.10 156 1.11 163 1.53 162 1.53
 165  0.538  0.704  0.495- 157 1.10 155 1.11 166 1.51 163 1.53
 166  0.624  0.665  0.516- 158 1.09 167 1.38 165 1.51  49 2.84
 167  0.705  0.714  0.498- 161 1.09 160 1.09 166 1.38  49 2.62
 
  Warning from LATTYP: Monoclinic adjustement (A1->A3, A2->A1, A3->A2)!
  Warning from LATTYP: Got some problem with cell dimensions!
  Tried to take original basis but could not verify dimensions!
  LATTYP: Found a simple monoclinic cell.
 ALAT       =    18.5584556648
 B/A-ratio  =     1.2917238965
 C/A-ratio  =     1.7011970181
 COS(beta)  =    -0.9496615564
  
  Lattice vectors:
  
 A1 = ( -14.0305058395, -12.1474763861,   0.0000000000)
 A2 = (   0.0000000000,   0.0000000000, -23.9724006653)
 A3 = (  29.1411063110,  12.1474763861,   0.0000000000)


Analysis of symmetry for initial positions (statically):
=====================================================================
 Subroutine PRICEL returns:
 Original cell was already a primitive cell.
 

 Routine SETGRP: Setting up the symmetry group for a 
 simple monoclinic supercell.


 Subroutine GETGRP returns: Found  1 space group operations
 (whereof  1 operations were pure point group operations)
 out of a pool of  4 trial point group operations.


The static configuration has the point symmetry C_1 .


Analysis of symmetry for dynamics (positions and initial velocities):
=====================================================================
 Subroutine PRICEL returns:
 Original cell was already a primitive cell.
 

 Routine SETGRP: Setting up the symmetry group for a 
 simple monoclinic supercell.


 Subroutine GETGRP returns: Found  1 space group operations
 (whereof  1 operations were pure point group operations)
 out of a pool of  4 trial point group operations.


The dynamic configuration has the point symmetry C_1 .


Analysis of constrained symmetry for selective dynamics:
=====================================================================
 Subroutine PRICEL returns:
 Original cell was already a primitive cell.
 

 Routine SETGRP: Setting up the symmetry group for a 
 simple monoclinic supercell.


 Subroutine GETGRP returns: Found  1 space group operations
 (whereof  1 operations were pure point group operations)
 out of a pool of  4 trial point group operations.


The constrained configuration has the point symmetry C_1 .


Analysis of structural, dynamic, and magnetic symmetry:
=====================================================================
 Subroutine PRICEL returns:
 Original cell was already a primitive cell.
 

 Routine SETGRP: Setting up the symmetry group for a 
 simple monoclinic supercell.


 Subroutine GETGRP returns: Found  1 space group operations
 (whereof  1 operations were pure point group operations)
 out of a pool of  4 trial point group operations.


The magnetic configuration has the point symmetry C_1 .


 Subroutine INISYM returns: Found  1 space group operations
 (whereof  1 operations are pure point group operations),
 and found     1 'primitive' translations

 
 
 KPOINTS: Monkhorst Pack                          

Automatic generation of k-mesh.
Space group operators:
 irot       det(A)        alpha          n_x          n_y          n_z        tau_x        tau_y        tau_z
    1     1.000000     0.000000     1.000000     0.000000     0.000000     0.000000     0.000000     0.000000
 
 Subroutine IBZKPT returns following result:
 ===========================================
 
 Found      2 irreducible k-points:
 
 Following reciprocal coordinates:
            Coordinates               Weight
  0.250000  0.250000  0.000000      2.000000
 -0.250000  0.250000  0.000000      2.000000
 
 Following cartesian coordinates:
            Coordinates               Weight
  0.016545  0.022051  0.000000      2.000000
 -0.016545  0.019109  0.000000      2.000000
 


--------------------------------------------------------------------------------------------------------




 Dimension of arrays:
   k-points           NKPTS =      2   k-points in BZ     NKDIM =      2   number of bands    NBANDS=    640
   number of dos      NEDOS =    301   number of ions     NIONS =    167
   non local maximal  LDIM  =      6   non local SUM 2l+1 LMDIM =     18
   total plane-waves  NPLWV = 823200
   max r-space proj   IRMAX =   2561   max aug-charges    IRDMAX=   7978
   dimension x,y,z NGX =    84 NGY =   70 NGZ =  140
   dimension x,y,z NGXF=   168 NGYF=  140 NGZF=  280
   support grid    NGXF=   168 NGYF=  140 NGZF=  280
   ions per type =              49  98  14   6
   NGX,Y,Z   is equivalent  to a cutoff of   9.24,  9.54,  9.71 a.u.
   NGXF,Y,Z  is equivalent  to a cutoff of  18.48, 19.08, 19.42 a.u.

 SYSTEM =  mZrO2_n111_dimer                        
 POSCAR =  Zr   O    H    C                        

 Startparameter for this run:
   NWRITE =      2    write-flag & timer
   PREC   = normal    normal or accurate (medium, high low for compatibility)
   ISTART =      1    job   : 0-new  1-cont  2-samecut
   ICHARG =      1    charge: 1-file 2-atom 10-const
   ISPIN  =      2    spin polarized calculation?
   LNONCOLLINEAR =      F non collinear calculations
   LSORBIT =      F    spin-orbit coupling
   INIWAV =      1    electr: 0-lowe 1-rand  2-diag
   LASPH  =      F    aspherical Exc in radial PAW
   METAGGA=      F    non-selfconsistent MetaGGA calc.

 Electronic Relaxation 1
   ENCUT  =  500.0 eV  36.75 Ry    6.06 a.u.  27.55 22.24 43.71*2*pi/ulx,y,z
   ENINI  =  500.0     initial cutoff
   ENAUG  =  644.9 eV  augmentation charge cutoff
   NELM   =    300;   NELMIN=  2; NELMDL=  0     # of ELM steps 
   EDIFF  = 0.1E-05   stopping-criterion for ELM
   LREAL  =      T    real-space projection
   NLSPLINE    = F    spline interpolate recip. space projectors
   LCOMPAT=      F    compatible to vasp.4.4
   GGA_COMPAT  = T    GGA compatible to vasp.4.4-vasp.4.6
   LMAXPAW     = -100 max onsite density
   LMAXMIX     =    2 max onsite mixed and CHGCAR
   VOSKOWN=      0    Vosko Wilk Nusair interpolation
   ROPT   =   -0.00050  -0.00050  -0.00050  -0.00050
 Ionic relaxation
   EDIFFG = -.5E-01   stopping-criterion for IOM
   NSW    =      0    number of steps for IOM
   NBLOCK =      1;   KBLOCK =      1    inner block; outer block 
   IBRION =     -1    ionic relax: 0-MD 1-quasi-New 2-CG
   NFREE  =      0    steps in history (QN), initial steepest desc. (CG)
   ISIF   =      2    stress and relaxation
   IWAVPR =     10    prediction:  0-non 1-charg 2-wave 3-comb
   ISYM   =      2    0-nonsym 1-usesym 2-fastsym
   LCORR  =      T    Harris-Foulkes like correction to forces

   POTIM  = 0.0000    time-step for ionic-motion
   TEIN   =    0.0    initial temperature
   TEBEG  =    0.0;   TEEND  =   0.0 temperature during run
   SMASS  =  -3.00    Nose mass-parameter (am)
   estimated Nose-frequenzy (Omega)   =  0.10E-29 period in steps =  0.00 mass=  -0.522E-26a.u.
   SCALEE = 1.0000    scale energy and forces
   NPACO  =    256;   APACO  = 16.0  distance and # of slots for P.C.
   PSTRESS=    0.0 pullay stress

  Mass of Ions in am
   POMASS =  91.22 16.00  1.00 12.01
  Ionic Valenz
   ZVAL   =  12.00  6.00  1.00  4.00
  Atomic Wigner-Seitz radii
   RWIGS  =  -1.00 -1.00 -1.00 -1.00
  virtual crystal weights 
   VCA    =   1.00  1.00  1.00  1.00
   NELECT =    1214.0000    total number of electrons
   NUPDOWN=      -1.0000    fix difference up-down

 DOS related values:
   EMIN   =  10.00;   EMAX   =-10.00  energy-range for DOS
   EFERMI =   0.00
   ISMEAR =     0;   SIGMA  =   0.05  broadening in eV -4-tet -1-fermi 0-gaus

 Electronic relaxation 2 (details)
   IALGO  =     38    algorithm
   LDIAG  =      T    sub-space diagonalisation (order eigenvalues)
   LSUBROT=      F    optimize rotation matrix (better conditioning)
   TURBO    =      0    0=normal 1=particle mesh
   IRESTART =      0    0=no restart 2=restart with 2 vectors
   NREBOOT  =      0    no. of reboots
   NMIN     =      0    reboot dimension
   EREF     =   0.00    reference energy to select bands
   IMIX   =      4    mixing-type and parameters
     AMIX     =   0.40;   BMIX     =  1.00
     AMIX_MAG =   1.60;   BMIX_MAG =  1.00
     AMIN     =   0.10
     WC   =   100.;   INIMIX=   1;  MIXPRE=   1;  MAXMIX= -45

 Intra band minimization:
   WEIMIN = 0.0000     energy-eigenvalue tresh-hold
   EBREAK =  0.39E-09  absolut break condition
   DEPER  =   0.30     relativ break condition  

   TIME   =   0.40     timestep for ELM

  volume/ion in A,a.u.               =      26.35       177.81
  Fermi-wavevector in a.u.,A,eV,Ry     =   1.065748  2.013972 15.453760  1.135819
  Thomas-Fermi vector in A             =   2.201310
 
 Write flags
   LWAVE        =      T    write WAVECAR
   LDOWNSAMPLE  =      F    k-point downsampling of WAVECAR
   LCHARG       =      T    write CHGCAR
   LVTOT        =      F    write LOCPOT, total local potential
   LVHAR        =      F    write LOCPOT, Hartree potential only
   LELF         =      F    write electronic localiz. function (ELF)
   LORBIT       =      0    0 simple, 1 ext, 2 COOP (PROOUT), +10 PAW based schemes


 Dipole corrections
   LMONO  =      F    monopole corrections only (constant potential shift)
   LDIPOL =      F    correct potential (dipole corrections)
   IDIPOL =      3    1-x, 2-y, 3-z, 4-all directions 
   EPSILON=  1.0000000 bulk dielectric constant

 LDA+U is selected, type is set to LDAUTYPE =  2
   angular momentum for each species LDAUL =     2   -1   -1   -1
   U (eV)           for each species LDAUU =   4.0  0.0  0.0  0.0
   J (eV)           for each species LDAUJ =   0.0  0.0  0.0  0.0
 Exchange correlation treatment:
   GGA     =    --    GGA type
   LEXCH   =     8    internal setting for exchange type
   VOSKOWN=      0    Vosko Wilk Nusair interpolation
   LHFCALC =     F    Hartree Fock is set to
   LHFONE  =     F    Hartree Fock one center treatment
   AEXX    =    0.0000 exact exchange contribution

 Linear response parameters
   LEPSILON=     F    determine dielectric tensor
   LRPA    =     F    only Hartree local field effects (RPA)
   LNABLA  =     F    use nabla operator in PAW spheres
   LVEL    =     F    velocity operator in full k-point grid
   LINTERFAST=   F  fast interpolation
   KINTER  =     0    interpolate to denser k-point grid
   CSHIFT  =0.1000    complex shift for real part using Kramers Kronig
   OMEGAMAX=  -1.0    maximum frequency
   DEG_THRESHOLD= 0.2000000E-02 threshold for treating states as degnerate
   RTIME   =   -0.100 relaxation time in fs
  (WPLASMAI=    0.000 imaginary part of plasma frequency in eV, 0.658/RTIME)
   DFIELD  = 0.0000000 0.0000000 0.0000000 field for delta impulse in time
 
 Orbital magnetization related:
   ORBITALMAG=     F  switch on orbital magnetization
   LCHIMAG   =     F  perturbation theory with respect to B field
   DQ        =  0.001000  dq finite difference perturbation B field
   LLRAUG    =     F  two centre corrections for induced B field



--------------------------------------------------------------------------------------------------------


 Static calculation
 charge density and potential will be updated during run
 spin polarized calculation
 Variant of blocked Davidson
 Davidson routine will perform the subspace rotation
 perform sub-space diagonalisation
    after iterative eigenvector-optimisation
 modified Broyden-mixing scheme, WC =      100.0
 initial mixing is a Kerker type mixing with AMIX =  0.4000 and BMIX =      1.0000
 Hartree-type preconditioning will be used
 using additional bands           33
 real space projection scheme for non local part
 use partial core corrections
 calculate Harris-corrections to forces 
   (improved forces if not selfconsistent)
 use gradient corrections 
 use of overlap-Matrix (Vanderbilt PP)
 Gauss-broadening in eV      SIGMA  =   0.05


--------------------------------------------------------------------------------------------------------


  energy-cutoff  :      500.00
  volume of cell :     4400.27
      direct lattice vectors                 reciprocal lattice vectors
    15.110600471  0.000000000  0.000000000     0.066178707  0.005884289  0.000000000
    -1.080094632 12.147476386  0.000000000     0.000000000  0.082321625  0.000000000
     0.000000000  0.000000000 23.972400665     0.000000000  0.000000000  0.041714637

  length of vectors
    15.110600471 12.195400238 23.972400665     0.066439793  0.082321625  0.041714637


 
 old parameters found on file WAVECAR:
  energy-cutoff  :      500.00
  volume of cell :     4400.27
      direct lattice vectors                 reciprocal lattice vectors
    15.110600471  0.000000000  0.000000000     0.066178707  0.005884289  0.000000000
    -1.080094632 12.147476386  0.000000000     0.000000000  0.082321625  0.000000000
     0.000000000  0.000000000 23.972400665     0.000000000  0.000000000  0.041714637

  length of vectors

 
 k-points in units of 2pi/SCALE and weight: Monkhorst Pack                          
   0.01654468  0.02205148  0.00000000       0.500
  -0.01654468  0.01910933  0.00000000       0.500
 
 k-points in reciprocal lattice and weights: Monkhorst Pack                          
   0.25000000  0.25000000  0.00000000       0.500
  -0.25000000  0.25000000  0.00000000       0.500
 
 position of ions in fractional coordinates (direct lattice) 
   0.08848000  0.32082999  0.03824000
   0.33847998  0.82083000  0.03824000
   0.58847999  0.32082999  0.03824000
   0.83848001  0.82083000  0.03824000
   0.07020001  0.83354995  0.04873000
   0.32019998  0.33355000  0.04873000
   0.57020004  0.83354995  0.04873000
   0.82020001  0.33355000  0.04873000
   0.23783000  0.06778000  0.05703000
   0.48783004  0.56778001  0.05703000
   0.73783001  0.06778000  0.05703000
   0.98782997  0.56778001  0.05703000
   0.21954999  0.58051001  0.06752000
   0.46955000  0.08051000  0.06752000
   0.71954999  0.58051001  0.06752000
   0.96955000  0.08051000  0.06752000
   0.10602069  0.98317181  0.17099474
   0.35629608  0.48388918  0.17115818
   0.60781035  0.98471903  0.17123557
   0.85521652  0.48261573  0.17336326
   0.08925161  0.49494778  0.18262433
   0.33912215  0.99530704  0.18230661
   0.58921385  0.49289784  0.18207866
   0.83890971  0.99616066  0.18259993
   0.00457262  0.23062420  0.19142475
   0.25322059  0.73013492  0.19131851
   0.50401518  0.22931050  0.19097633
   0.75737829  0.73044430  0.19087379
   0.23968615  0.24225905  0.20087019
   0.48814795  0.74309298  0.19993886
   0.74136171  0.24614347  0.20416494
   0.98876559  0.74065021  0.20199218
   0.12276363  0.64146544  0.31400295
   0.37146584  0.14045680  0.31314521
   0.62345636  0.64768853  0.30493034
   0.87420458  0.14080293  0.31422263
   0.10938228  0.16153139  0.31249668
   0.35803992  0.66021267  0.31258400
   0.60623205  0.15890615  0.31338687
   0.85854016  0.66150828  0.31797373
   0.02651529  0.88947146  0.32434491
   0.27534700  0.38907631  0.32548243
   0.52453014  0.88775380  0.32462771
   0.77982276  0.38437376  0.33510203
   0.01021263  0.40751034  0.33587650
   0.25850234  0.90744275  0.33595164
   0.50757179  0.40196344  0.33443182
   0.75985552  0.90878901  0.33575316
   0.69493096  0.55400576  0.42426040
   0.02440000  0.17254999  0.00000000
   0.27439999  0.67255002  0.00000000
   0.52439999  0.17254999  0.00000000
   0.77439999  0.67255002  0.00000000
   0.21455000  0.43156997  0.01581000
   0.46455001  0.93156996  0.01581000
   0.71455008  0.43156997  0.01581000
   0.96455004  0.93156996  0.01581000
   0.20673000  0.89092997  0.02490000
   0.45673000  0.39092998  0.02490000
   0.70672997  0.89092997  0.02490000
   0.95673004  0.39092998  0.02490000
   0.19748000  0.22610000  0.04418000
   0.44748002  0.72610003  0.04418000
   0.69748003  0.22610000  0.04418000
   0.94747999  0.72610003  0.04418000
   0.11054000  0.67523994  0.06158000
   0.36054002  0.17523999  0.06158000
   0.61053998  0.67523994  0.06158000
   0.86053999  0.17523999  0.06158000
   0.10129000  0.01041000  0.08086000
   0.35129000  0.51041000  0.08086000
   0.60128998  0.01041000  0.08086000
   0.85128994  0.51041000  0.08086000
   0.09348000  0.46976000  0.08995000
   0.34348000  0.96975995  0.08995000
   0.59348001  0.46976000  0.08995000
   0.84347996  0.96975995  0.08995000
   0.03362000  0.22878000  0.10576000
   0.28361999  0.72877998  0.10576000
   0.53361997  0.22878000  0.10576000
   0.78362002  0.72877998  0.10576000
   0.04559684  0.83318698  0.13364550
   0.29649617  0.33392346  0.13354103
   0.54648025  0.83410173  0.13345273
   0.79591986  0.33282796  0.13410904
   0.23146903  0.09348023  0.14628008
   0.48156191  0.59361479  0.14670040
   0.73176586  0.09386263  0.14693887
   0.98171299  0.59349285  0.14688770
   0.22567987  0.55233892  0.16050706
   0.47622038  0.05144321  0.16070447
   0.72499636  0.55218051  0.16054915
   0.97527964  0.05251768  0.16076589
   0.21505166  0.89042231  0.18106043
   0.46457422  0.38980379  0.18080984
   0.71508579  0.88973425  0.18133218
   0.96524080  0.39064583  0.18203288
   0.12990238  0.33512803  0.19239071
   0.37904000  0.83535396  0.19343056
   0.62815901  0.33505713  0.19429724
   0.87974984  0.83680993  0.19373009
   0.11761150  0.67128847  0.21450216
   0.36735270  0.17016456  0.21316954
   0.61842054  0.67114625  0.21360824
   0.86805757  0.17118851  0.21593962
   0.11545703  0.13078518  0.22396549
   0.36406318  0.63140193  0.22409132
   0.61517253  0.13161312  0.22511230
   0.86405761  0.63223092  0.22466051
   0.04722670  0.89374968  0.23982916
   0.29699629  0.39603896  0.24061610
   0.54738883  0.89366494  0.24007205
   0.79548800  0.39454815  0.24141641
   0.06936088  0.49235031  0.26885793
   0.31471599  0.99304715  0.26837020
   0.56187085  0.49391104  0.26857127
   0.81209758  0.99498810  0.26838852
   0.25070423  0.75034443  0.28261213
   0.49727638  0.25005758  0.28152020
   0.75027990  0.74955736  0.28280197
   0.00443213  0.25153217  0.28162313
   0.24569379  0.21472365  0.29120556
   0.49429257  0.71281902  0.29040559
   0.74405440  0.21562263  0.29637866
   0.99456727  0.71207932  0.29285794
   0.23897475  0.55483576  0.32888031
   0.48612256  0.05255733  0.32689212
   0.73147710  0.55320704  0.32813885
   0.98918044  0.05589447  0.32839827
   0.14666314  0.00405909  0.33070180
   0.39816064  0.50518549  0.33393171
   0.64350050  0.00073437  0.33364337
   0.89616814  0.50029363  0.32746957
   0.13734866  0.32145179  0.35150041
   0.38586254  0.82125006  0.35022190
   0.62032534  0.31377154  0.35270852
   0.88970674  0.83396231  0.34619813
   0.13168564  0.79991489  0.35635058
   0.38092535  0.29989428  0.35554521
   0.62911409  0.79424529  0.35548813
   0.88965470  0.29502441  0.35645200
   0.06546446  0.54453072  0.37483044
   0.31545152  0.04343897  0.37461090
   0.57690493  0.54598694  0.37656646
   0.81607426  0.04239215  0.37504265
   0.81372927  0.66609391  0.40592343
   0.75666931  0.42198178  0.41827832
   0.84352035  0.72435586  0.42839165
   0.35549110  0.73890496  0.49958130
   0.44441045  0.59436787  0.54174441
   0.30827858  0.50590714  0.45196530
   0.46989355  0.54801019  0.47425753
   0.23311890  0.60978561  0.45505434
   0.27343635  0.55363342  0.51748663
   0.52619510  0.77673007  0.52157778
   0.38560216  0.69865316  0.43287600
   0.54729359  0.73652594  0.45266474
   0.62124994  0.61723163  0.55442947
   0.61194196  0.51295198  0.48462718
   0.70600251  0.78031438  0.46726190
   0.76571059  0.70489548  0.52126470
   0.29200474  0.57985114  0.47485672
   0.45586179  0.62147664  0.49822200
   0.37174510  0.66632886  0.47536647
   0.53774227  0.70440833  0.49549901
   0.62408998  0.66545331  0.51601351
   0.70477595  0.71374751  0.49784865
 
 position of ions in cartesian coordinates  (Angst):
   0.99045921  3.89727473  0.91670460
   4.22806168  9.97101307  0.91670460
   8.54575920  3.89727473  0.91670460
  11.78336239  9.97101307  0.91670460
   0.16045142 10.12552833  1.16817511
   4.47814847  4.05179071  1.16817511
   7.71575212 10.12552833  1.16817511
  12.03344917  4.05179071  1.16817511
   3.52054525  0.82335597  1.36714601
   6.75814868  6.89709425  1.36714601
  11.07584571  0.82335597  1.36714601
  14.31344795  6.89709425  1.36714601
   2.69052649  7.05173159  1.61861647
   7.00822400  0.97799331  1.61861647
  10.24582672  7.05173159  1.61861647
  14.56352424  0.97799331  1.61861647
   0.54011777 11.94305634  4.09915443
   4.86120164  5.87803244  4.10307244
   8.12078957 11.96185119  4.10492781
  12.40156448  5.86256321  4.15593359
   0.81405493  6.01236643  4.37794372
   4.04931359 12.09046882  4.37032718
   8.37099883  5.98746492  4.36486259
  11.60048164 12.10083813  4.37735868
  -0.18000090  2.80150203  4.58891081
   3.03770036  8.86929671  4.58636393
   7.36829496  2.78554390  4.57816117
  10.65549178  8.87305491  4.57570302
   3.36013889  2.94283610  4.81534075
   6.57359795  9.02670443  4.79301435
  10.93656229  2.99002202  4.89432382
  14.14086951  8.99703089  4.84223753
   1.16218876  7.79218631  7.52740443
   5.46136531  1.70619566  7.50684247
   8.72123509  7.86778113  7.30991227
  13.05767559  1.71040025  7.53267087
   1.47836276  1.96219874  7.49129569
   4.69710607  8.01991782  7.49338888
   8.98889669  1.93030875  7.51263556
  12.25856583  8.03565616  7.62259355
  -0.56005144 10.80483352  7.77532618
   3.74041930  4.72629533  7.80259518
   6.96710726 10.78396831  7.78210561
  11.36843016  4.66917118  8.03320010
  -0.28583076  4.95022220  8.05176597
   2.92600150 11.02313940  8.05356727
   7.23555598  4.88284136  8.01713351
  10.50029502 11.03949298  8.04880920
   9.90244542  6.72977185 10.17054037
   0.18232835  2.09604693  0.00000000
   3.41993094  8.16978550  0.00000000
   7.73762846  2.09604693  0.00000000
  10.97523117  8.16978550  0.00000000
   2.77584291  5.24248600  0.37900365
   6.01344586 11.31622410  0.37900365
  10.33114434  5.24248600  0.37900365
  13.56874656 11.31622410  0.37900365
   2.16152573 10.82255077  0.59691280
   6.47922326  4.74881268  0.59691280
   9.71682548 10.82255077  0.59691280
  14.03452396  4.74881268  0.59691280
   2.73983193  2.74654436  1.05910064
   5.97743511  8.82028293  1.05910064
  10.29513263  2.74654436  1.05910064
  13.53273487  8.82028293  1.05910064
   0.94100273  8.20246124  1.47622036
   5.25870037  2.12872362  1.47622036
   8.49630260  8.20246124  1.47622036
  12.81400013  2.12872362  1.47622036
   1.51930892  0.12645522  1.93840825
   4.75691175  6.20019341  1.93840825
   9.07460880  0.12645522  1.93840825
  12.31221104  6.20019341  1.93840825
   0.90515363  5.70639848  2.15631746
   4.14275646 11.78013610  2.15631746
   8.46045399  5.70639848  2.15631746
  11.69805622 11.78013610  2.15631746
   0.26091433  2.77909971  2.53532100
   3.49851704  8.85283756  2.53532100
   7.81621408  2.77909971  2.53532100
  11.05381775  8.85283756  2.53532100
  -0.21092520 10.12111922  3.20380359
   4.11956616  4.05632734  3.20129914
   7.35673586 10.13223101  3.19918226
  11.66734128  4.04301981  3.21491571
   3.39666851  1.13554888  3.50668468
   6.63552950  7.21092166  3.51676070
  10.95604099  1.14019404  3.52247735
  14.19324439  7.20944035  3.52125089
   2.81358011  6.70952395  3.84773965
   7.14041240  0.62490516  3.85247206
  10.35872320  6.70759966  3.84874844
  14.68033697  0.63795729  3.85394432
   2.28781939 10.81638397  4.34045329
   6.59897040  4.73513236  4.33444591
   9.84437855 10.80802578  4.34696756
  14.16343362  4.74536102  4.36376524
   1.60093292  4.07095977  4.61206727
   4.82526073 10.14744254  4.63699497
   9.12996636  4.07009855  4.65777126
  12.38971445 10.16512882  4.64417524
   1.05212531  8.15446089  5.14213183
   5.36712603  2.06707000  5.11018569
   8.61980423  8.15273320  5.12070240
  12.93197133  2.07950841  5.17659104
   1.60336475  1.58870986  5.36899036
   4.81923947  7.66994008  5.37200699
   9.15347175  1.59876722  5.39648222
  12.37356013  7.68001020  5.38565185
  -0.25171048 10.85680315  5.74928074
   4.06003267  4.81087389  5.76814564
   7.30613117 10.85577372  5.75510335
  11.59415199  4.79276435  5.78733085
   0.51629969  5.98081375  6.44516998
   3.68296264 12.06301677  6.43347787
   7.95673521  5.99977272  6.43829808
  11.19660076 12.08659445  6.43391710
   2.97784853  9.11479124  6.77489114
   7.24405892  3.03756855  6.74871514
  10.52758691  9.10523038  6.77944218
  -0.20470640  3.05548107  6.75118260
   3.48065887  2.60835042  6.98089633
   6.69914559  8.65895220  6.96171904
  11.01021595  2.61927076  7.10490804
  14.25939567  8.64996672  7.02050776
   3.01177685  6.73985431  7.88405052
   7.28883696  0.63843892  7.83638888
  10.45554224  6.72006948  7.86627607
  14.88673905  0.67897678  7.87249502
   2.21178391  0.04930771  7.92771610
   5.47079824  6.13672883  8.00514483
   9.72288581  0.00892068  7.99823262
  13.00127428  6.07730504  7.85023182
   1.72822234  3.90482808  8.42630864
   4.94358691  9.97611566  8.39565973
   9.03458542  3.81153236  8.45526986
  12.54324487 10.13053741  8.29920036
   1.12586525  9.71694726  8.54257891
   5.43209655  3.64295868  8.52327226
   8.64843164  9.64807587  8.52190397
  13.12456247  3.58380204  8.54501023
   0.40106254  6.61467410  8.98558549
   4.71974368  0.52767381  8.98032269
   8.12766234  6.63236340  9.02720200
  12.28558453  0.51495762  8.99067267
  11.57649343  8.09135998  9.73095900
  10.97794733  5.12601369 10.02713557
  11.96372619  8.79909568 10.26957630
   4.57359675  8.97583054 11.97616303
   6.07333519  7.22006972 12.98691417
   4.11184689  6.14549508 10.83469317
   6.50847080  6.65694087 11.36909144
   2.86394035  7.40735633 10.90874501
   3.53381094  6.72524892 12.40539695
   7.11218192  9.43531018 12.50347150
   5.07206862  8.48687277 10.37707696
   7.47441709  8.94693148 10.85146052
   8.72079105  7.49780668 13.29100550
   8.69277374  6.23107211 11.61767686
   9.82530847  9.47885051 11.20138946
  10.80899292  8.56270119 12.49596622
   3.78607290  7.04372798 11.38345556
   6.21709179  7.54937284 11.94357744
   4.89759344  8.09421414 11.39567544
   7.36478094  8.55678357 11.87830080
   8.71162184  8.08357837 12.37008252
   9.87867299  8.67023099 11.93462719
 


--------------------------------------------------------------------------------------------------------


 k-point  1 :   0.2500 0.2500 0.0000  plane waves:  111683
 k-point  2 :  -0.2500 0.2500 0.0000  plane waves:  111725

 maximum and minimum number of plane-waves per node :      7001     6957

 maximum number of plane-waves:    111725
 maximum index in each direction: 
   IXMAX=   27   IYMAX=   21   IZMAX=   43
   IXMIN=  -27   IYMIN=  -22   IZMIN=  -43


 real space projection operators:
  total allocation   :      22451.20 KBytes
  max/ min on nodes  :       1636.99       1284.68


 parallel 3D FFT for wavefunctions:
    minimum data exchange during FFTs selected (reduces bandwidth)
 parallel 3D FFT for charge:
    minimum data exchange during FFTs selected (reduces bandwidth)


 total amount of memory used by VASP MPI-rank0    92403. kBytes
=======================================================================

   base      :      30000. kBytes
   nonlr-proj:       9140. kBytes
   fftplans  :       4220. kBytes
   grid      :      12288. kBytes
   one-center:        342. kBytes
   wavefun   :      36413. kBytes
 
     INWAV:  cpu time   37.4608: real time   37.4417
 Broyden mixing: mesh for mixing (old mesh)
   NGX = 55   NGY = 45   NGZ = 87
  (NGX  =168   NGY  =140   NGZ  =280)
  gives a total of 215325 points

 initial charge density was supplied:
 number of electron    1214.0000125 magnetization       0.0000000
 keeping initial charge density in first step


--------------------------------------------------------------------------------------------------------


 Maximum index for non-local projection operator          419
 Maximum index for augmentation-charges          476 (set IRDMAX)


--------------------------------------------------------------------------------------------------------


 First call to EWALD:  gamma=   0.108
 Maximum number of real-space cells 3x 4x 2
 Maximum number of reciprocal cells 3x 2x 4

    FEWALD:  cpu time    0.0230: real time    0.0230


--------------------------------------- Iteration      1(   1)  ---------------------------------------


    POTLOK:  cpu time    0.4664: real time    0.4832
    SETDIJ:  cpu time    0.0783: real time    0.0795
     EDDAV:  cpu time   26.0261: real time   26.0182
       DOS:  cpu time    0.0218: real time    0.0219
    CHARGE:  cpu time    1.0349: real time    1.0340
    MIXING:  cpu time    0.0532: real time    0.0558
    --------------------------------------------
      LOOP:  cpu time   27.6812: real time   27.6930

 eigenvalue-minimisations  :  6272
 total energy-change (2. order) :-0.1377504E+04  (-0.1359081E+00)
 number of electron    1214.0000125 magnetization      -0.0000000
 augmentation part       74.0661050 magnetization       0.0000003

 Broyden mixing:
  rms(total) = 0.95248E-01    rms(broyden)= 0.95167E-01
  rms(prec ) = 0.96519E-01
  weight for this iteration     100.00

 Free energy of the ion-electron system (eV)
  ---------------------------------------------------
  alpha Z        PSCENC =      2166.38705829
  Ewald energy   TEWEN  =    388157.42383316
  -Hartree energ DENC   =   -485315.83357809
  -exchange      EXHF   =         0.00000000
  -V(xc)+E(xc)   XCENC  =      5336.90803014
  PAW double counting   =    130092.15896741  -129415.11310503
  entropy T*S    EENTRO =        -0.00000000
  eigenvalues    EBANDS =    -18754.70135201
  atomic energy  EATOM  =    106355.26625530
  Solvation  Ediel_sol  =         0.00000000
  ---------------------------------------------------
  free energy    TOTEN  =     -1377.50389083 eV

  energy without entropy =    -1377.50389083  energy(sigma->0) =    -1377.50389083


--------------------------------------------------------------------------------------------------------




--------------------------------------- Iteration      1(   2)  ---------------------------------------


    POTLOK:  cpu time    0.4226: real time    0.4494
    SETDIJ:  cpu time    0.0769: real time    0.0767
     EDDAV:  cpu time   25.3936: real time   25.3681
       DOS:  cpu time    0.0028: real time    0.0027
    CHARGE:  cpu time    1.0340: real time    1.0329
    MIXING:  cpu time    0.0165: real time    0.0190
    --------------------------------------------
      LOOP:  cpu time   26.9463: real time   26.9488

 eigenvalue-minimisations  :  6080
 total energy-change (2. order) :-0.1760385E+01  (-0.1211075E+00)
 number of electron    1214.0000124 magnetization      -0.0000000
 augmentation part       73.9925040 magnetization      -0.0000000

 Broyden mixing:
  rms(total) = 0.41271E-01    rms(broyden)= 0.41153E-01
  rms(prec ) = 0.43443E-01
  weight for this iteration     100.00

 eigenvalues of (default mixing * dielectric matrix)
  average eigenvalue GAMMA=   0.7365
  0.7365

 Free energy of the ion-electron system (eV)
  ---------------------------------------------------
  alpha Z        PSCENC =      2166.38705829
  Ewald energy   TEWEN  =    388157.42383316
  -Hartree energ DENC   =   -485316.80708272
  -exchange      EXHF   =         0.00000000
  -V(xc)+E(xc)   XCENC  =      5337.00093333
  PAW double counting   =    129948.63046598  -129270.53723356
  entropy T*S    EENTRO =        -0.00000000
  eigenvalues    EBANDS =    -18756.62850532
  atomic energy  EATOM  =    106355.26625530
  Solvation  Ediel_sol  =         0.00000000
  ---------------------------------------------------
  free energy    TOTEN  =     -1379.26427554 eV

  energy without entropy =    -1379.26427554  energy(sigma->0) =    -1379.26427554


--------------------------------------------------------------------------------------------------------




--------------------------------------- Iteration      1(   3)  ---------------------------------------


    POTLOK:  cpu time    0.4362: real time    0.4471
    SETDIJ:  cpu time    0.0770: real time    0.0769
     EDDAV:  cpu time   27.1660: real time   27.1374
       DOS:  cpu time    0.0025: real time    0.0025
    CHARGE:  cpu time    1.0412: real time    1.0403
    MIXING:  cpu time    0.0080: real time    0.0080
    --------------------------------------------
      LOOP:  cpu time   28.7309: real time   28.7121

 eigenvalue-minimisations  :  6656
 total energy-change (2. order) :-0.9886425E-02  (-0.4329775E-02)
 number of electron    1214.0000125 magnetization      -0.0000000
 augmentation part       74.0244585 magnetization      -0.0000000

 Broyden mixing:
  rms(total) = 0.27884E-01    rms(broyden)= 0.27866E-01
  rms(prec ) = 0.28313E-01
  weight for this iteration     100.00

 eigenvalues of (default mixing * dielectric matrix)
  average eigenvalue GAMMA=   0.6937
  0.6937  0.6937

 Free energy of the ion-electron system (eV)
  ---------------------------------------------------
  alpha Z        PSCENC =      2166.38705829
  Ewald energy   TEWEN  =    388157.42383316
  -Hartree energ DENC   =   -485314.40129637
  -exchange      EXHF   =         0.00000000
  -V(xc)+E(xc)   XCENC  =      5336.80580040
  PAW double counting   =    129974.48032993  -129295.62587536
  entropy T*S    EENTRO =        -0.00000000
  eigenvalues    EBANDS =    -18759.61026731
  atomic energy  EATOM  =    106355.26625530
  Solvation  Ediel_sol  =         0.00000000
  ---------------------------------------------------
  free energy    TOTEN  =     -1379.27416196 eV

  energy without entropy =    -1379.27416196  energy(sigma->0) =    -1379.27416196


--------------------------------------------------------------------------------------------------------




--------------------------------------- Iteration      1(   4)  ---------------------------------------


    POTLOK:  cpu time    0.4380: real time    0.4479
    SETDIJ:  cpu time    0.0768: real time    0.0767
     EDDAV:  cpu time   23.5334: real time   23.5095
       DOS:  cpu time    0.0025: real time    0.0025
    CHARGE:  cpu time    1.0390: real time    1.0379
    MIXING:  cpu time    0.0086: real time    0.0091
    --------------------------------------------
      LOOP:  cpu time   25.0983: real time   25.0835

 eigenvalue-minimisations  :  5504
 total energy-change (2. order) :-0.4180496E-04  (-0.2184641E-03)
 number of electron    1214.0000125 magnetization      -0.0000000
 augmentation part       74.0195611 magnetization       0.0000002

 Broyden mixing:
  rms(total) = 0.22478E-01    rms(broyden)= 0.22477E-01
  rms(prec ) = 0.22794E-01
  weight for this iteration     100.00

 eigenvalues of (default mixing * dielectric matrix)
  average eigenvalue GAMMA=   0.6852
  0.7714  0.7714  0.5129

 Free energy of the ion-electron system (eV)
  ---------------------------------------------------
  alpha Z        PSCENC =      2166.38705829
  Ewald energy   TEWEN  =    388157.42383316
  -Hartree energ DENC   =   -485315.20074698
  -exchange      EXHF   =         0.00000000
  -V(xc)+E(xc)   XCENC  =      5336.87540936
  PAW double counting   =    130004.26971946  -129325.36533950
  entropy T*S    EENTRO =        -0.00000000
  eigenvalues    EBANDS =    -18758.93039285
  atomic energy  EATOM  =    106355.26625530
  Solvation  Ediel_sol  =         0.00000000
  ---------------------------------------------------
  free energy    TOTEN  =     -1379.27420377 eV

  energy without entropy =    -1379.27420377  energy(sigma->0) =    -1379.27420377


--------------------------------------------------------------------------------------------------------




--------------------------------------- Iteration      1(   5)  ---------------------------------------


    POTLOK:  cpu time    0.4262: real time    0.4533
    SETDIJ:  cpu time    0.0766: real time    0.0766
     EDDAV:  cpu time   27.6124: real time   27.5869
       DOS:  cpu time    0.0026: real time    0.0026
    CHARGE:  cpu time    1.0382: real time    1.0371
    MIXING:  cpu time    0.0089: real time    0.0089
    --------------------------------------------
      LOOP:  cpu time   29.1650: real time   29.1655

 eigenvalue-minimisations  :  6784
 total energy-change (2. order) :-0.2839195E-05  (-0.2031675E-04)
 number of electron    1214.0000125 magnetization      -0.0000000
 augmentation part       74.0253354 magnetization       0.0000002

 Broyden mixing:
  rms(total) = 0.18927E-01    rms(broyden)= 0.18927E-01
  rms(prec ) = 0.19193E-01
  weight for this iteration     100.00

 eigenvalues of (default mixing * dielectric matrix)
  average eigenvalue GAMMA=   0.7317
  0.9136  0.9136  0.5497  0.5497

 Free energy of the ion-electron system (eV)
  ---------------------------------------------------
  alpha Z        PSCENC =      2166.38705829
  Ewald energy   TEWEN  =    388157.42383316
  -Hartree energ DENC   =   -485315.29706839
  -exchange      EXHF   =         0.00000000
  -V(xc)+E(xc)   XCENC  =      5336.87945407
  PAW double counting   =    130022.16902674  -129343.22665051
  entropy T*S    EENTRO =        -0.00000000
  eigenvalues    EBANDS =    -18758.87611527
  atomic energy  EATOM  =    106355.26625530
  Solvation  Ediel_sol  =         0.00000000
  ---------------------------------------------------
  free energy    TOTEN  =     -1379.27420661 eV

  energy without entropy =    -1379.27420661  energy(sigma->0) =    -1379.27420661


--------------------------------------------------------------------------------------------------------




--------------------------------------- Iteration      1(   6)  ---------------------------------------


    POTLOK:  cpu time    0.4517: real time    0.4516
    SETDIJ:  cpu time    0.0767: real time    0.0766
     EDDAV:  cpu time   27.0686: real time   27.0424
       DOS:  cpu time    0.0021: real time    0.0021
    CHARGE:  cpu time    1.0390: real time    1.0377
    MIXING:  cpu time    0.0095: real time    0.0095
    --------------------------------------------
      LOOP:  cpu time   28.6476: real time   28.6198

 eigenvalue-minimisations  :  6592
 total energy-change (2. order) :-0.1036011E-04  (-0.2514754E-05)
 number of electron    1214.0000125 magnetization      -0.0000000
 augmentation part       74.0266899 magnetization       0.0000002

 Broyden mixing:
  rms(total) = 0.16243E-01    rms(broyden)= 0.16243E-01
  rms(prec ) = 0.16483E-01
  weight for this iteration     100.00

 eigenvalues of (default mixing * dielectric matrix)
  average eigenvalue GAMMA=   0.7940
  1.1249  1.1249  0.5195  0.6003  0.6003

 Free energy of the ion-electron system (eV)
  ---------------------------------------------------
  alpha Z        PSCENC =      2166.38705829
  Ewald energy   TEWEN  =    388157.42383316
  -Hartree energ DENC   =   -485315.44496868
  -exchange      EXHF   =         0.00000000
  -V(xc)+E(xc)   XCENC  =      5336.88777331
  PAW double counting   =    130037.23075443  -129358.27494215
  entropy T*S    EENTRO =        -0.00000000
  eigenvalues    EBANDS =    -18758.74998062
  atomic energy  EATOM  =    106355.26625530
  Solvation  Ediel_sol  =         0.00000000
  ---------------------------------------------------
  free energy    TOTEN  =     -1379.27421697 eV

  energy without entropy =    -1379.27421697  energy(sigma->0) =    -1379.27421697


--------------------------------------------------------------------------------------------------------




--------------------------------------- Iteration      1(   7)  ---------------------------------------


    POTLOK:  cpu time    0.4367: real time    0.4467
    SETDIJ:  cpu time    0.0766: real time    0.0765
     EDDAV:  cpu time   27.3653: real time   27.3368
       DOS:  cpu time    0.0023: real time    0.0023
    CHARGE:  cpu time    1.0727: real time    1.0718
    MIXING:  cpu time    0.0099: real time    0.0099
    --------------------------------------------
      LOOP:  cpu time   28.9636: real time   28.9441

 eigenvalue-minimisations  :  6656
 total energy-change (2. order) :-0.4782632E-05  (-0.2375125E-05)
 number of electron    1214.0000125 magnetization      -0.0000000
 augmentation part       74.0281567 magnetization       0.0000002

 Broyden mixing:
  rms(total) = 0.13084E-01    rms(broyden)= 0.13084E-01
  rms(prec ) = 0.13275E-01
  weight for this iteration     100.00

 eigenvalues of (default mixing * dielectric matrix)
  average eigenvalue GAMMA=   0.8635
  1.3476  1.3476  0.6914  0.6914  0.5515  0.5515

 Free energy of the ion-electron system (eV)
  ---------------------------------------------------
  alpha Z        PSCENC =      2166.38705829
  Ewald energy   TEWEN  =    388157.42383316
  -Hartree energ DENC   =   -485315.51722633
  -exchange      EXHF   =         0.00000000
  -V(xc)+E(xc)   XCENC  =      5336.89305199
  PAW double counting   =    130054.00756426  -129375.03815344
  entropy T*S    EENTRO =        -0.00000000
  eigenvalues    EBANDS =    -18758.69660497
  atomic energy  EATOM  =    106355.26625530
  Solvation  Ediel_sol  =         0.00000000
  ---------------------------------------------------
  free energy    TOTEN  =     -1379.27422175 eV

  energy without entropy =    -1379.27422175  energy(sigma->0) =    -1379.27422175


--------------------------------------------------------------------------------------------------------




--------------------------------------- Iteration      1(   8)  ---------------------------------------


    POTLOK:  cpu time    0.4398: real time    0.4499
    SETDIJ:  cpu time    0.0768: real time    0.0767
     EDDAV:  cpu time   25.5518: real time   25.5257
       DOS:  cpu time    0.0029: real time    0.0029
    CHARGE:  cpu time    1.0767: real time    1.0758
    MIXING:  cpu time    0.0106: real time    0.0106
    --------------------------------------------
      LOOP:  cpu time   27.1585: real time   27.1414

 eigenvalue-minimisations  :  5984
 total energy-change (2. order) :-0.4262169E-05  (-0.1848094E-05)
 number of electron    1214.0000125 magnetization      -0.0000000
 augmentation part       74.0295098 magnetization       0.0000001

 Broyden mixing:
  rms(total) = 0.10706E-01    rms(broyden)= 0.10706E-01
  rms(prec ) = 0.10855E-01
  weight for this iteration     100.00

 eigenvalues of (default mixing * dielectric matrix)
  average eigenvalue GAMMA=   0.9131
  1.5766  1.5766  0.7684  0.7684  0.5333  0.5842  0.5842

 Free energy of the ion-electron system (eV)
  ---------------------------------------------------
  alpha Z        PSCENC =      2166.38705829
  Ewald energy   TEWEN  =    388157.42383316
  -Hartree energ DENC   =   -485315.56962920
  -exchange      EXHF   =         0.00000000
  -V(xc)+E(xc)   XCENC  =      5336.89621463
  PAW double counting   =    130066.79887080  -129387.81988203
  entropy T*S    EENTRO =        -0.00000000
  eigenvalues    EBANDS =    -18758.65694696
  atomic energy  EATOM  =    106355.26625530
  Solvation  Ediel_sol  =         0.00000000
  ---------------------------------------------------
  free energy    TOTEN  =     -1379.27422601 eV

  energy without entropy =    -1379.27422601  energy(sigma->0) =    -1379.27422601


--------------------------------------------------------------------------------------------------------




--------------------------------------- Iteration      1(   9)  ---------------------------------------


    POTLOK:  cpu time    0.4437: real time    0.4503
    SETDIJ:  cpu time    0.0766: real time    0.0766
     EDDAV:  cpu time   20.6358: real time   20.6148
       DOS:  cpu time    0.0025: real time    0.0025
    CHARGE:  cpu time    1.0753: real time    1.0743
    MIXING:  cpu time    0.0108: real time    0.0108
    --------------------------------------------
      LOOP:  cpu time   22.2448: real time   22.2293

 eigenvalue-minimisations  :  4480
 total energy-change (2. order) :-0.4218586E-05  (-0.5723302E-06)
 number of electron    1214.0000125 magnetization      -0.0000000
 augmentation part       74.0305181 magnetization       0.0000001

 Broyden mixing:
  rms(total) = 0.90660E-02    rms(broyden)= 0.90660E-02
  rms(prec ) = 0.91935E-02
  weight for this iteration     100.00

 eigenvalues of (default mixing * dielectric matrix)
  average eigenvalue GAMMA=   1.0264
  1.9688  1.9688  0.9069  0.9069  0.6562  0.6562  0.5737  0.5737

 Free energy of the ion-electron system (eV)
  ---------------------------------------------------
  alpha Z        PSCENC =      2166.38705829
  Ewald energy   TEWEN  =    388157.42383316
  -Hartree energ DENC   =   -485315.60408946
  -exchange      EXHF   =         0.00000000
  -V(xc)+E(xc)   XCENC  =      5336.89783905
  PAW double counting   =    130075.61976495  -129396.63785072
  entropy T*S    EENTRO =        -0.00000000
  eigenvalues    EBANDS =    -18758.62704080
  atomic energy  EATOM  =    106355.26625530
  Solvation  Ediel_sol  =         0.00000000
  ---------------------------------------------------
  free energy    TOTEN  =     -1379.27423023 eV

  energy without entropy =    -1379.27423023  energy(sigma->0) =    -1379.27423023


--------------------------------------------------------------------------------------------------------




--------------------------------------- Iteration      1(  10)  ---------------------------------------


    POTLOK:  cpu time    0.4516: real time    0.4517
    SETDIJ:  cpu time    0.0765: real time    0.0765
     EDDAV:  cpu time   25.6289: real time   25.6021
       DOS:  cpu time    0.0028: real time    0.0028
    CHARGE:  cpu time    1.0694: real time    1.0687
    MIXING:  cpu time    0.0112: real time    0.0112
    --------------------------------------------
      LOOP:  cpu time   27.2405: real time   27.2130

 eigenvalue-minimisations  :  6112
 total energy-change (2. order) :-0.4557500E-05  (-0.1515383E-05)
 number of electron    1214.0000125 magnetization       0.0000000
 augmentation part       74.0315891 magnetization       0.0000001

 Broyden mixing:
  rms(total) = 0.60997E-02    rms(broyden)= 0.60997E-02
  rms(prec ) = 0.61904E-02
  weight for this iteration     100.00

 eigenvalues of (default mixing * dielectric matrix)
  average eigenvalue GAMMA=   1.1325
[...]
    3.8854751489E-03   -2.9276771692E-06    5.0571823628E-03
    2.8268085263E-02    2.2210602883E-02   -3.9678056718E-03
    9.3342407260E-03    2.1638598227E-03    3.0078328405E-02
    6.7015715163E-03   -4.6877570487E-04    3.3739999270E-02
    1.5478348448E-02   -1.6983939585E-02   -1.3987173997E-01
    3.0397064119E-02    1.3429836453E-02   -6.0491455782E-02
    5.4507822330E-03    1.8613359942E-02    9.4284414468E-03
    1.4681683739E-02    1.5457029652E-02    3.0503363267E-02
    2.8283099502E-04   -1.9555216844E-03    4.0826405942E-02
   -1.4861536425E-02    3.5806221025E-03    2.2039776101E-03
    4.9493600549E-03   -5.9043279021E-03    1.5050439291E-02
    3.0149396876E-02   -3.5808909163E-03    1.7295176588E-02
   -8.4531764786E-04   -1.8615876542E-02   -5.1617046838E-02
    3.5109948400E-02    1.7412839750E-01   -3.8910086773E-02
    0.0000000000E+00    0.0000000000E+00    0.0000000000E+00
    0.0000000000E+00    0.0000000000E+00    0.0000000000E+00
    0.0000000000E+00    0.0000000000E+00    0.0000000000E+00
    0.0000000000E+00    0.0000000000E+00    0.0000000000E+00
    0.0000000000E+00    0.0000000000E+00    0.0000000000E+00
    0.0000000000E+00    0.0000000000E+00    0.0000000000E+00
    0.0000000000E+00    0.0000000000E+00    0.0000000000E+00
    0.0000000000E+00    0.0000000000E+00    0.0000000000E+00
    0.0000000000E+00    0.0000000000E+00    0.0000000000E+00
    0.0000000000E+00    0.0000000000E+00    0.0000000000E+00
    0.0000000000E+00    0.0000000000E+00    0.0000000000E+00
    0.0000000000E+00    0.0000000000E+00    0.0000000000E+00
    0.0000000000E+00    0.0000000000E+00    0.0000000000E+00
    0.0000000000E+00    0.0000000000E+00    0.0000000000E+00
    0.0000000000E+00    0.0000000000E+00    0.0000000000E+00
    0.0000000000E+00    0.0000000000E+00    0.0000000000E+00
    0.0000000000E+00    0.0000000000E+00    0.0000000000E+00
    0.0000000000E+00    0.0000000000E+00    0.0000000000E+00
    0.0000000000E+00    0.0000000000E+00    0.0000000000E+00
    0.0000000000E+00    0.0000000000E+00    0.0000000000E+00
    0.0000000000E+00    0.0000000000E+00    0.0000000000E+00
    0.0000000000E+00    0.0000000000E+00    0.0000000000E+00
    0.0000000000E+00    0.0000000000E+00    0.0000000000E+00
    0.0000000000E+00    0.0000000000E+00    0.0000000000E+00
    0.0000000000E+00    0.0000000000E+00    0.0000000000E+00
    0.0000000000E+00    0.0000000000E+00    0.0000000000E+00
    0.0000000000E+00    0.0000000000E+00    0.0000000000E+00
    0.0000000000E+00    0.0000000000E+00    0.0000000000E+00
    0.0000000000E+00    0.0000000000E+00    0.0000000000E+00
    0.0000000000E+00    0.0000000000E+00    0.0000000000E+00
    0.0000000000E+00    0.0000000000E+00    0.0000000000E+00
    0.0000000000E+00    0.0000000000E+00    0.0000000000E+00
    5.4788893115E-03    4.8324332720E-03   -1.9266619810E-02
   -2.0746354795E-02    1.2346031096E-02    7.0986362905E-03
   -2.8119270467E-02    1.4444698413E-02    1.1998094158E-02
   -4.1257090363E-04   -2.5908686040E-02    7.6370880309E-03
    2.6820027504E-02    1.0511173478E-03    1.1113464810E-02
   -9.4127229560E-03    4.7511090648E-03   -5.0918428008E-04
   -8.4855149238E-03   -3.1832690256E-02    2.4468850575E-02
    2.9499905857E-02   -1.9169846580E-02   -7.0087628063E-03
   -1.1600309084E-02    4.2907947232E-02   -5.7722996563E-03
   -3.8711704427E-02    1.0339384868E-02    9.7670311540E-03
   -4.7209022372E-02   -1.7559290996E-02    7.1349850899E-03
    1.5341702443E-02    2.6228388446E-03    4.1808101751E-02
    2.4852945174E-02    9.1536303521E-03    4.4454998881E-02
   -2.6797234123E-02    4.3609013174E-03    1.8603170436E-02
   -1.5287927824E-02    5.3999330620E-03   -1.4977457852E-02
    1.9364562988E-02   -1.0817349787E-02   -4.2129776238E-02
    2.0365920216E-02   -2.3437739207E-02    1.3155228079E-02
    1.4962580532E-02   -3.7638206406E-03    7.0117155735E-02
   -1.8808394005E-02   -8.2868074392E-03   -1.0144143979E-02
   -5.5334485381E-02    2.4932744138E-02    1.9114108465E-03
    2.1044928118E-02    1.8274598552E-02    1.7298286414E-02
    1.6152518789E-02   -2.3466891926E-03    3.4236836985E-02
    9.4017701039E-03   -1.3574120352E-02   -2.3553706443E-02
    1.1914160657E-02    9.3705273904E-04    4.4961496422E-02
    8.7061493568E-03   -3.8510041437E-03    4.6371904602E-03
    1.8762407111E-02   -1.5091841756E-02    3.0596360909E-02
   -3.3342045638E-02   -3.8190326759E-03    4.0122883717E-02
   -1.6382968080E-02   -2.6938939899E-03   -1.0896307929E-01
    3.9039833092E-04   -5.8649314804E-02   -5.5784321414E-02
   -4.0446073775E-03    6.2026230827E-02    1.1518673770E-02
    1.2056085749E-02    1.2554169810E-02    3.7097424808E-02
    4.3877061148E-02   -9.6470349261E-04   -6.4190390349E-03
   -2.1630786692E-02    4.4329173831E-02    1.5246277866E-03
    1.9738843716E-02   -3.6994895854E-02    6.6716132987E-03
    1.1137694846E-01   -6.8439504195E-02    2.1841341802E-02
   -8.5762716162E-02    2.2012352384E-02   -7.3878578809E-02
   -1.9273054817E-03   -2.5668896260E-03    4.5609103550E-04
    3.0911239577E-02   -2.7155938627E-03    2.9173325437E-02
   -5.7843695998E-02   -5.6546211170E-02   -7.6357953346E-02
    1.5614019392E-03    2.7539120296E-02    3.5529589426E-02
   -1.9791121524E-02   -5.6404846637E-02   -3.7373479051E-02
    1.8018319164E-02    1.2041322762E-02    4.1888806564E-02
    1.2980659017E-02    5.3075083908E-02    4.2714791822E-02
   -3.3969415904E-02   -1.4065711856E-02   -5.9034701481E-02
    8.8609526744E-03    1.4094931299E-02    1.0700961421E-01
   -2.9688231133E-02    5.5159381034E-02    1.8568387130E-01
   -1.1839004981E-02    4.3384133344E-03   -1.1346213393E-02
    2.9253845727E-02    1.4408504795E-02   -2.8591608223E-02
    4.8780856134E-02    3.0115244236E-02   -4.1672815829E-02
    7.6563090813E-02    3.3706087263E-02   -8.0997923581E-04
    1.5700731019E-02    3.8489859561E-02   -5.4430513071E-03
    8.3548848799E-04   -4.5042251176E-02   -5.5823013684E-02
    7.5060085326E-02    9.0149653825E-02   -8.0366343201E-02
    1.8758196003E-03    1.5559499796E-03    3.9294856830E-02
    4.2857805486E-02   -2.1683592251E-02   -1.3601872820E-03
    5.6553124799E-02    3.7131302077E-03   -4.0238769163E-01
   -3.0634214704E-02    1.2662182633E-02    5.8651575806E-03
    4.8321387708E-03    1.8716315503E-02   -1.9637754246E-02
    6.8115313366E-02    2.3907252150E-02   -2.2558065481E-02
    1.5768156136E-02   -6.7392405102E-02    7.2746221699E-02
    2.8770777037E-02   -1.9658081827E-02   -1.2544976332E-02
   -6.5226127170E-02   -1.9625971770E-02    2.0113953836E-02
    9.1933302553E-03    3.7975576097E-02    2.2823478015E-02
   -4.2159273628E-02   -5.0933914981E-03   -2.3922000041E-02
    1.2619822740E-01    2.9375847660E-02   -2.0224743103E-01
   -4.4169502478E-02    1.2556448723E-01   -2.1457885533E-02
    5.1918638082E-02   -2.7082215765E-02   -6.4630567285E-02
   -1.9537117013E-02    3.6475819291E-03    1.8201029479E-02
   -3.9284636276E-02   -1.6171640737E-02   -1.9706952323E-03
   -3.3427704686E-02    1.1856852776E-02    9.9488238591E-03
   -9.2008202356E-02   -5.0601906241E-02   -1.2177068278E-02
   -3.8151046587E-02    1.6583146750E-03    1.1603388719E-02
   -3.1589185657E-02    7.8056873807E-03    1.1301605456E-02
    8.2476918213E-02   -1.0186279097E-01   -1.6853547651E-02
   -3.6843737906E-02    5.7908646363E-03    9.3426616054E-03
   -3.4966966827E-02   -7.6867022930E-02   -4.0723881875E-02
   -3.7752360082E-02   -5.4241491684E-02    5.3135837648E-03
   -1.1360739919E-01    4.3298380246E-01    4.6557071573E-02
   -7.1248758529E-02   -3.7502487134E-02    2.9006233934E-02
   -5.3536556981E-02    1.0609977935E-03    1.0101299235E-02
   -3.6071800441E-02    8.1485848737E-03    1.0914206616E-02
   -5.9827246714E-02   -3.6490243817E-02   -1.6885242593E-02
   -4.4014207304E-02   -8.3199899599E-05    8.2338571065E-03
   -1.9860996126E-02   -1.1396258459E-01   -4.4977816682E-02
   -3.0930002864E-02   -2.5015191369E-01   -1.3634572545E-01
    5.7908610706E-03   -1.8995398041E-01   -8.0504625840E-02
 Dimer: -----------------
 Dimer: Itr    1 Rot    0

 Dimer: Central Point
 Dimer: F0      0.146728

 Dimer: Projection
 Dimer: N*F0  7.889664780008862E-003
 Dimer: F0sq  2.152910222102506E-002
 Dimer: Feffsq   6.224681034091229E-005
 Dimer: Feff
    0.0000000000E+00    0.0000000000E+00    0.0000000000E+00
    0.0000000000E+00    0.0000000000E+00    0.0000000000E+00
    0.0000000000E+00    0.0000000000E+00    0.0000000000E+00
    0.0000000000E+00    0.0000000000E+00    0.0000000000E+00
    0.0000000000E+00    0.0000000000E+00    0.0000000000E+00
    0.0000000000E+00    0.0000000000E+00    0.0000000000E+00
    0.0000000000E+00    0.0000000000E+00    0.0000000000E+00
    0.0000000000E+00    0.0000000000E+00    0.0000000000E+00
    0.0000000000E+00    0.0000000000E+00    0.0000000000E+00
    0.0000000000E+00    0.0000000000E+00    0.0000000000E+00
    0.0000000000E+00    0.0000000000E+00    0.0000000000E+00
    0.0000000000E+00    0.0000000000E+00    0.0000000000E+00
    0.0000000000E+00    0.0000000000E+00    0.0000000000E+00
    0.0000000000E+00    0.0000000000E+00    0.0000000000E+00
    0.0000000000E+00    0.0000000000E+00    0.0000000000E+00
    0.0000000000E+00    0.0000000000E+00    0.0000000000E+00
   -9.9343825905E-05    2.5748015347E-05   -2.4148990708E-05
    4.5095282624E-05   -4.3160060090E-05   -6.1868250238E-05
    1.1994481796E-06   -8.7632253933E-05   -1.2538892910E-04
   -8.2346741513E-05    2.5283152048E-04    1.4744576849E-04
   -5.2745568127E-05   -3.6951734060E-05   -7.3495643681E-05
   -1.6130957909E-04   -2.1266740949E-06   -2.0336383053E-04
    2.9976822820E-05    3.5174613601E-05   -1.7199322275E-05
    2.1397587390E-06   -9.3261438660E-06   -1.5194378887E-05
   -4.9164761916E-05    7.7931266737E-05   -1.3505561986E-04
   -7.8947007491E-05   -2.8712185227E-05   -1.5026311628E-04
   -3.5255458072E-05   -7.2434194555E-06   -1.5104284444E-04
    1.2293543234E-04   -5.4782601741E-05    1.4818189405E-04
   -5.7845866128E-05   -4.9175754789E-06   -1.1198616359E-04
   -1.0243304664E-04    1.4634188131E-05   -1.8889300329E-04
    3.5786235030E-05   -4.6573325937E-05   -2.4316919881E-04
   -1.0416449911E-05    7.1703145972E-05    2.1354348757E-04
    1.8290499332E-05   -2.1246177212E-05   -1.2392791160E-04
   -5.6186642426E-05    1.3350890860E-05   -1.9398608023E-04
   -4.3652399725E-05    1.1195760326E-04    1.3805641568E-04
   -3.0655096436E-05    2.3098391449E-08   -3.9899473574E-05
   -2.2302571670E-04   -1.7523421131E-04    3.1304656663E-05
   -7.3644030304E-05   -1.7072128632E-05   -2.3730792826E-04
   -5.2873152763E-05    3.6984831684E-06   -2.6619728392E-04
   -1.2211898060E-04    1.3399758997E-04    1.1035411406E-03
   -2.3982264620E-04   -1.0595690766E-04    4.7725730817E-04
   -4.3004844607E-05   -1.4685317037E-04   -7.4387242413E-05
   -1.1583356311E-04   -1.2195078245E-04   -2.4066131084E-04
   -2.2314417401E-06    1.5428410560E-05   -3.2210665706E-04
    1.1725254051E-04   -2.8249908093E-05   -1.7388644526E-05
   -3.9048791709E-05    4.6583167899E-05   -1.1874292080E-04
   -2.3786863467E-04    2.8252028943E-05   -1.3645314559E-04
    6.6692728742E-06    1.4687302550E-04    4.0724119649E-04
   -2.7700572332E-04   -1.3738146850E-03    3.0698754120E-04
    0.0000000000E+00    0.0000000000E+00    0.0000000000E+00
    0.0000000000E+00    0.0000000000E+00    0.0000000000E+00
    0.0000000000E+00    0.0000000000E+00    0.0000000000E+00
    0.0000000000E+00    0.0000000000E+00    0.0000000000E+00
    0.0000000000E+00    0.0000000000E+00    0.0000000000E+00
    0.0000000000E+00    0.0000000000E+00    0.0000000000E+00
    0.0000000000E+00    0.0000000000E+00    0.0000000000E+00
    0.0000000000E+00    0.0000000000E+00    0.0000000000E+00
    0.0000000000E+00    0.0000000000E+00    0.0000000000E+00
    0.0000000000E+00    0.0000000000E+00    0.0000000000E+00
    0.0000000000E+00    0.0000000000E+00    0.0000000000E+00
    0.0000000000E+00    0.0000000000E+00    0.0000000000E+00
    0.0000000000E+00    0.0000000000E+00    0.0000000000E+00
    0.0000000000E+00    0.0000000000E+00    0.0000000000E+00
    0.0000000000E+00    0.0000000000E+00    0.0000000000E+00
    0.0000000000E+00    0.0000000000E+00    0.0000000000E+00
    0.0000000000E+00    0.0000000000E+00    0.0000000000E+00
    0.0000000000E+00    0.0000000000E+00    0.0000000000E+00
    0.0000000000E+00    0.0000000000E+00    0.0000000000E+00
    0.0000000000E+00    0.0000000000E+00    0.0000000000E+00
    0.0000000000E+00    0.0000000000E+00    0.0000000000E+00
    0.0000000000E+00    0.0000000000E+00    0.0000000000E+00
    0.0000000000E+00    0.0000000000E+00    0.0000000000E+00
    0.0000000000E+00    0.0000000000E+00    0.0000000000E+00
    0.0000000000E+00    0.0000000000E+00    0.0000000000E+00
    0.0000000000E+00    0.0000000000E+00    0.0000000000E+00
    0.0000000000E+00    0.0000000000E+00    0.0000000000E+00
    0.0000000000E+00    0.0000000000E+00    0.0000000000E+00
    0.0000000000E+00    0.0000000000E+00    0.0000000000E+00
    0.0000000000E+00    0.0000000000E+00    0.0000000000E+00
    0.0000000000E+00    0.0000000000E+00    0.0000000000E+00
    0.0000000000E+00    0.0000000000E+00    0.0000000000E+00
   -4.3226600035E-05   -3.8126278588E-05    1.5200717174E-04
    1.6368178474E-04   -9.7406046711E-05   -5.6005860727E-05
    2.2185161784E-04   -1.1396382833E-04   -9.4660940906E-05
    3.2550461276E-06    2.0441084775E-04   -6.0254064459E-05
   -2.1160102640E-04   -8.2929635186E-06   -8.7681511895E-05
    7.4263228790E-05   -3.7484657855E-05    4.0172932811E-06
    6.6947868235E-05    2.5114925517E-04   -1.9305102859E-04
   -2.3274436825E-04    1.5124366340E-04    5.5296789064E-05
    9.1522550017E-05   -3.3852932006E-04    4.5541509298E-05
    3.0542237099E-04   -8.1574280640E-05   -7.7058601701E-05
    3.7246336111E-04    1.3853691973E-04   -5.6292640570E-05
   -1.2104088943E-04   -2.0693319256E-05   -3.2985190790E-04
   -1.9608140622E-04   -7.2219074998E-05   -3.5073503897E-04
    2.1142119426E-04   -3.4406049533E-05   -1.4677277859E-04
    1.2061662571E-04   -4.2603661694E-05    1.1816712171E-04
   -1.5277991059E-04    8.5345263628E-05    3.3238981177E-04
   -1.6068028344E-04    1.8491590554E-04   -1.0379033965E-04
   -1.1804974464E-04    2.9695283146E-05   -5.5320085408E-04
    1.4839192375E-04    6.5380132792E-05    8.0033895474E-05
    4.3657054043E-04   -1.9671099329E-04   -1.5080390836E-05
   -1.6603742817E-04   -1.4418045656E-04   -1.3647768108E-04
   -1.2743795860E-04    1.8514591072E-05   -2.7011716694E-04
   -7.4176814459E-05    1.0709525926E-04    1.8583084816E-04
   -9.3998733719E-05   -7.3930319922E-06   -3.5473113478E-04
   -6.8688599950E-05    3.0383131760E-05   -3.6585878252E-05
   -1.4802910257E-04    1.1906957237E-04   -2.4139503106E-04
    2.6305756316E-04    3.0130887597E-05   -3.1655610253E-04
    1.2925612625E-04    2.1253920533E-05    8.5968216900E-04
   -3.0801119616E-06    4.6272343338E-04    4.4011959594E-04
    3.1910596375E-05   -4.8936616879E-04   -9.0878474756E-05
   -9.5118475119E-05   -9.9048191392E-05   -2.9268624594E-04
   -3.4617530399E-04    7.6111871688E-06    5.0644066195E-05
    1.7065965593E-04   -3.4974232150E-04   -1.2028802151E-05
   -1.5573286006E-04    2.9187732686E-04   -5.2636792469E-05
   -8.7872678757E-04    5.3996474581E-04   -1.7232086516E-04
    6.7663908114E-04   -1.7367008133E-04    5.8287722123E-04
    1.5205794179E-05    2.0251898676E-05   -3.5984053793E-06
   -2.4387931820E-04    2.1425125255E-05   -2.3016775822E-04
    4.5636737106E-04    4.4613065071E-04    6.0243865519E-04
   -1.2318937887E-05   -2.1727442747E-04   -2.8031655034E-04
    1.5614531444E-04    4.4501533193E-04    2.9486422138E-04
   -1.4215849810E-04   -9.5002000100E-05   -3.3048864182E-04
   -1.0241304827E-04   -4.1874462021E-04   -3.3700538862E-04
    2.6800730426E-04    1.1097375144E-04    4.6576400507E-04
   -6.9909946233E-05   -1.1120428305E-04   -8.4426998436E-04
    2.3423019155E-04   -4.3518902583E-04   -1.4649834996E-03
    9.3405780629E-05   -3.4228626886E-05    8.9517820193E-05
   -2.3080303631E-04   -1.1367827281E-04    2.2557820440E-04
   -3.8486460258E-04   -2.3759918179E-04    3.2878454733E-04
   -6.0405712104E-04   -2.6592972955E-04    6.3904646493E-06
   -1.2387350454E-04   -3.0367208937E-04    4.2943850193E-05
   -6.5917240978E-06    3.5536826272E-04    4.4042486498E-04
   -5.9219891158E-04   -7.1125054871E-04    6.3406350745E-04
   -1.4799587834E-05   -1.2275923754E-05   -3.1002324797E-04
   -3.3813371849E-04    1.7107627409E-04    1.0731421693E-05
   -4.4618519693E-04   -2.9295352623E-05    3.1747039986E-03
    2.4169368481E-04   -9.9900376358E-05   -4.6274127193E-05
   -3.8123955072E-05   -1.4766545524E-04    1.5493529803E-04
   -5.3740698884E-04   -1.8862020527E-04    1.7797557473E-04
   -1.2440546611E-04    5.3170348497E-04   -5.7394330322E-04
   -2.2699178628E-04    1.5509567583E-04    9.8975657933E-05
    5.1461227827E-04    1.5484233825E-04   -1.5869235317E-04
   -7.2532293926E-05   -2.9961456523E-04   -1.8006959065E-04
    3.3262253629E-04    4.0185151513E-05    1.8873656119E-04
   -9.9566171002E-04   -2.3176559067E-04    1.5956644334E-03
    3.4848256805E-04   -9.9066171252E-04    1.6929552374E-04
   -4.0962065030E-04    2.1366960389E-04    5.0991351042E-04
    1.5414130400E-04   -2.8778198678E-05   -1.4360002124E-04
    3.0994261122E-04    1.2758882436E-04    1.5548124766E-05
    2.6373338434E-04   -9.3546593749E-05   -7.8492885204E-05
    7.2591387360E-04    3.9923207747E-04    9.6072986717E-05
    3.0099896858E-04   -1.3083546886E-05   -9.1546847305E-05
    2.4922808551E-04   -6.1584256811E-05   -8.9165878524E-05
   -6.5071523679E-04    8.0366327431E-04    1.3296884132E-04
    2.9068474132E-04   -4.5687980767E-05   -7.3710468220E-05
    2.7587764664E-04    6.0645504356E-04    3.2129777653E-04
    2.9785346570E-04    4.2794718655E-04   -4.1922394685E-05
    8.9632429614E-04   -3.4160970566E-03   -3.6731968785E-04
    5.6212882079E-04    2.9588205190E-04   -2.2884946227E-04
    4.2238548806E-04   -8.3709169230E-06   -7.9695864807E-05
    2.8459441349E-04   -6.4289603085E-05   -8.6109431540E-05
    4.7201692128E-04    2.8789579146E-04    1.3321890379E-04
    3.4725734119E-04    6.5641931757E-07   -6.4962372417E-05
    1.5669660163E-04    8.9912658988E-04    3.5485989616E-04
    2.4402735424E-04    1.9736147431E-03    1.0757220680E-03
   -4.5687952635E-05    1.4986732291E-03    6.3515451112E-04
 
 stress matrix after NEB project (eV)
    -57.13058    -24.39507      0.66452
    -24.39507    -72.69338     -1.50022
      0.66452     -1.50022    -10.05531
  FORCES: max atom, RMS     0.037764    0.011354
  FORCE total and by dimension    0.146728    0.032313
  Stress total and by dimension   99.221787   72.693376
 OPT: skip step - force has converged
 writing wavefunctions
     LOOP+:  cpu time  575.4979: real time  607.8444
    4ORBIT:  cpu time    0.0000: real time    0.0000

 total amount of memory used by VASP MPI-rank0    92403. kBytes
=======================================================================

   base      :      30000. kBytes
   nonlr-proj:       9140. kBytes
   fftplans  :       4220. kBytes
   grid      :      12288. kBytes
   one-center:        342. kBytes
   wavefun   :      36413. kBytes
 
  
  
 General timing and accounting informations for this job:
 ========================================================
  
                  Total CPU time used (sec):      897.991
                            User time (sec):      648.305
                          System time (sec):      249.686
                         Elapsed time (sec):      935.005
  
                   Maximum memory used (kb):      934060.
                   Average memory used (kb):           0.
  
                          Minor page faults:        87831
                          Major page faults:           60
                 Voluntary context switches:        15465
