       N       E                     dE             d eps       ncg     rms          rms(c)
DAV:   1    -0.137119935329E+04   -0.13712E+04   -0.13357E+00  6304   0.978E-01    0.950E-01
DAV:   2    -0.137294286955E+04   -0.17435E+01   -0.11890E+00  6016   0.949E-01    0.411E-01
DAV:   3    -0.137295265434E+04   -0.97848E-02   -0.43669E-02  6656   0.230E-01    0.277E-01
DAV:   4    -0.137295270613E+04   -0.51792E-04   -0.21521E-03  5504   0.572E-02    0.224E-01
DAV:   5    -0.137295271469E+04   -0.85607E-05   -0.19589E-04  6784   0.180E-02    0.188E-01
DAV:   6    -0.137295272742E+04   -0.12729E-04   -0.23125E-05  7200   0.715E-03    0.162E-01
DAV:   7    -0.137295273494E+04   -0.75163E-05   -0.23991E-05  6656   0.833E-03    0.129E-01
DAV:   8    -0.137295274046E+04   -0.55208E-05   -0.17306E-05  6912   0.652E-03    0.106E-01
DAV:   9    -0.137295274464E+04   -0.41774E-05   -0.45103E-06  7168   0.315E-03    0.911E-02
DAV:  10    -0.137295274985E+04   -0.52136E-05   -0.13952E-05  6560   0.641E-03    0.613E-02
DAV:  11    -0.137295275372E+04   -0.38666E-05   -0.38839E-05  6528   0.102E-02    0.188E-02
DAV:  12    -0.137295275496E+04   -0.12430E-05   -0.56446E-06  6992   0.308E-03    0.116E-02
DAV:  13    -0.137295275519E+04   -0.22759E-06   -0.91126E-07  6432   0.156E-03    0.508E-03
DAV:  14    -0.137295275520E+04   -0.98808E-08   -0.43397E-07  7312   0.880E-04    0.257E-03
DAV:  15    -0.137295275515E+04    0.45999E-07   -0.26960E-08  3264   0.321E-04    0.115E-03
DAV:  16    -0.137295275513E+04    0.23720E-07   -0.53059E-08  4224   0.301E-04    0.379E-04
DAV:  17    -0.137295275511E+04    0.22046E-07   -0.51774E-09  3008   0.118E-04    0.354E-04
DAV:  18    -0.137295275511E+04   -0.34051E-08   -0.15577E-09  3072   0.752E-05
   1 F= -.13922506E+04 E0= -.13922506E+04  d E =-.139225E+04  mag=     0.0000
       N       E                     dE             d eps       ncg     rms          rms(c)
DAV:   1    -0.137295162862E+04    0.11265E-02   -0.58079E-01  5120   0.880E-01    0.123E-01
DAV:   2    -0.137295194847E+04   -0.31985E-03   -0.51197E-03  5568   0.820E-02    0.872E-02
DAV:   3    -0.137295187915E+04    0.69325E-04   -0.56962E-04  6208   0.410E-02    0.377E-02
DAV:   4    -0.137295188432E+04   -0.51678E-05   -0.12880E-04  6176   0.172E-02    0.168E-02
DAV:   5    -0.137295188061E+04    0.37036E-05   -0.44953E-05  5984   0.106E-02    0.722E-03
DAV:   6    -0.137295188020E+04    0.41617E-06   -0.52808E-06  6048   0.318E-03    0.420E-03
DAV:   7    -0.137295188022E+04   -0.22002E-07   -0.35053E-06  6224   0.264E-03    0.217E-03
DAV:   8    -0.137295188025E+04   -0.28769E-07   -0.46959E-07  5824   0.109E-03    0.126E-03
DAV:   9    -0.137295188039E+04   -0.14571E-06   -0.21520E-07  5152   0.642E-04    0.513E-04
DAV:  10    -0.137295188051E+04   -0.11821E-06   -0.60606E-08  4960   0.410E-04    0.507E-04
DAV:  11    -0.137295188062E+04   -0.11073E-06   -0.30248E-08  4224   0.296E-04    0.240E-04
DAV:  12    -0.137295188071E+04   -0.93205E-07   -0.11873E-08  3376   0.174E-04    0.103E-04
DAV:  13    -0.137295188082E+04   -0.10362E-06   -0.71652E-09  3200   0.126E-04    0.114E-04
DAV:  14    -0.137295188089E+04   -0.72934E-07   -0.29667E-09  3072   0.867E-05    0.789E-05
DAV:  15    -0.137295188095E+04   -0.54279E-07   -0.43926E-09  3136   0.819E-05    0.495E-05
DAV:  16    -0.137295188097E+04   -0.24724E-07   -0.95491E-10  3072   0.468E-05    0.402E-05
DAV:  17    -0.137295188099E+04   -0.19732E-07   -0.71966E-10  3072   0.431E-05    0.208E-05
DAV:  18    -0.137295188099E+04   -0.46712E-08    0.31534E-10  2944   0.273E-05
   2 F= -.13922498E+04 E0= -.13922498E+04  d E =0.774980E-03  mag=    -0.0000
       N       E                     dE             d eps       ncg     rms          rms(c)
DAV:   1    -0.137295166829E+04    0.21270E-03   -0.11616E+00  5120   0.123E+00    0.137E-01
DAV:   2    -0.137295244523E+04   -0.77694E-03   -0.10394E-02  5568   0.110E-01    0.883E-02
DAV:   3    -0.137295235313E+04    0.92099E-04   -0.84521E-04  6496   0.391E-02    0.474E-02
DAV:   4    -0.137295233678E+04    0.16356E-04   -0.24393E-04  5536   0.240E-02    0.172E-02
DAV:   5    -0.137295233410E+04    0.26817E-05   -0.63255E-05  5504   0.119E-02    0.102E-02
DAV:   6    -0.137295233469E+04   -0.59059E-06   -0.15582E-05  6688   0.444E-03    0.641E-03
DAV:   7    -0.137295233422E+04    0.46579E-06   -0.29945E-06  6688   0.253E-03    0.339E-03
DAV:   8    -0.137295233441E+04   -0.18699E-06   -0.15544E-06  6176   0.181E-03    0.217E-03
DAV:   9    -0.137295233446E+04   -0.51834E-07   -0.43687E-07  6400   0.925E-04    0.897E-04
DAV:  10    -0.137295233463E+04   -0.16596E-06   -0.85248E-08  4736   0.384E-04    0.320E-04
DAV:  11    -0.137295233478E+04   -0.15233E-06   -0.24469E-08  4256   0.233E-04    0.293E-04
DAV:  12    -0.137295233489E+04   -0.11404E-06   -0.98244E-09  3264   0.189E-04    0.146E-04
DAV:  13    -0.137295233499E+04   -0.93001E-07   -0.17535E-08  3840   0.173E-04    0.161E-04
DAV:  14    -0.137295233505E+04   -0.59808E-07   -0.31941E-09  3072   0.938E-05    0.735E-05
DAV:  15    -0.137295233510E+04   -0.53871E-07   -0.29742E-09  3072   0.715E-05    0.386E-05
DAV:  16    -0.137295233513E+04   -0.30792E-07   -0.65036E-10  3072   0.428E-05    0.298E-05
DAV:  17    -0.137295233515E+04   -0.22235E-07   -0.37188E-10  3072   0.314E-05    0.218E-05
DAV:  18    -0.137295233516E+04   -0.88621E-08    0.32933E-10  3072   0.247E-05
   3 F= -.13922501E+04 E0= -.13922501E+04  d E =-.349862E-03  mag=    -0.0000
       N       E                     dE             d eps       ncg     rms          rms(c)
DAV:   1    -0.137295167335E+04    0.66180E-03   -0.11551E+00  5120   0.124E+00    0.129E-01
DAV:   2    -0.137295223097E+04   -0.55762E-03   -0.95547E-03  5728   0.114E-01    0.931E-02
DAV:   3    -0.137295210280E+04    0.12817E-03   -0.10449E-03  6336   0.477E-02    0.450E-02
DAV:   4    -0.137295210084E+04    0.19608E-05   -0.18631E-04  5952   0.195E-02    0.192E-02
DAV:   5    -0.137295209716E+04    0.36803E-05   -0.44642E-05  5536   0.114E-02    0.851E-03
DAV:   6    -0.137295209691E+04    0.24878E-06   -0.59453E-06  5600   0.359E-03    0.432E-03
DAV:   7    -0.137295209688E+04    0.32800E-07   -0.36368E-06  6208   0.297E-03    0.263E-03
DAV:   8    -0.137295209689E+04   -0.10536E-07   -0.80333E-07  6464   0.140E-03    0.139E-03
DAV:   9    -0.137295209701E+04   -0.12650E-06   -0.31703E-07  5792   0.103E-03    0.723E-04
DAV:  10    -0.137295209722E+04   -0.20787E-06   -0.11913E-07  5760   0.742E-04    0.585E-04
DAV:  11    -0.137295209743E+04   -0.20467E-06   -0.85150E-08  5440   0.547E-04    0.273E-04
DAV:  12    -0.137295209771E+04   -0.28514E-06   -0.32322E-08  4608   0.474E-04    0.216E-04
DAV:  13    -0.137295209788E+04   -0.16675E-06   -0.39808E-08  4416   0.280E-04    0.177E-04
DAV:  14    -0.137295209799E+04   -0.11204E-06   -0.61757E-09  3584   0.112E-04    0.113E-04
DAV:  15    -0.137295209814E+04   -0.14648E-06   -0.61512E-09  3264   0.959E-05    0.627E-05
DAV:  16    -0.137295209820E+04   -0.64567E-07   -0.24499E-09  3104   0.628E-05    0.450E-05
DAV:  17    -0.137295209829E+04   -0.92419E-07   -0.41418E-09  3200   0.695E-05    0.406E-05
DAV:  18    -0.137295209832E+04   -0.29831E-07   -0.11658E-09  3072   0.469E-05    0.373E-05
DAV:  19    -0.137295209835E+04   -0.20809E-07   -0.80488E-10  3136   0.428E-05    0.301E-05
DAV:  20    -0.137295209836E+04   -0.12427E-07   -0.14186E-10  3072   0.327E-05    0.195E-05
DAV:  21    -0.137295209836E+04   -0.52823E-08    0.25650E-10  3072   0.263E-05
   4 F= -.13922507E+04 E0= -.13922507E+04  d E =-.600483E-03  mag=     0.0000
       N       E                     dE             d eps       ncg     rms          rms(c)
DAV:   1    -0.137295136088E+04    0.73747E-03   -0.11556E+00  5120   0.124E+00    0.188E-01
DAV:   2    -0.137295236221E+04   -0.10013E-02   -0.12959E-02  5568   0.123E-01    0.145E-01
DAV:   3    -0.137295217118E+04    0.19102E-03   -0.13073E-03  6304   0.569E-02    0.801E-02
DAV:   4    -0.137295217182E+04   -0.63737E-06   -0.50060E-04  6176   0.364E-02    0.267E-02
DAV:   5    -0.137295215530E+04    0.16518E-04   -0.15296E-04  5760   0.212E-02    0.145E-02
DAV:   6    -0.137295215463E+04    0.66959E-06   -0.38805E-05  5920   0.791E-03    0.830E-03
DAV:   7    -0.137295215353E+04    0.10976E-05   -0.88980E-06  6784   0.461E-03    0.375E-03
DAV:   8    -0.137295215337E+04    0.16693E-06   -0.23701E-06  5728   0.280E-03    0.301E-03
DAV:   9    -0.137295215315E+04    0.22103E-06   -0.75142E-07  6624   0.163E-03    0.141E-03
DAV:  10    -0.137295215353E+04   -0.38224E-06   -0.71052E-07  6080   0.157E-03    0.121E-03
DAV:  11    -0.137295215406E+04   -0.53254E-06   -0.31621E-07  6432   0.128E-03    0.900E-04
DAV:  12    -0.137295215469E+04   -0.63360E-06   -0.26997E-07  5152   0.764E-04    0.392E-04
DAV:  13    -0.137295215521E+04   -0.51067E-06   -0.41820E-08  4832   0.346E-04    0.261E-04
DAV:  14    -0.137295215561E+04   -0.40268E-06   -0.24488E-08  4256   0.250E-04    0.186E-04
DAV:  15    -0.137295215609E+04   -0.47775E-06   -0.24159E-08  4064   0.158E-04    0.119E-04
DAV:  16    -0.137295215638E+04   -0.29516E-06   -0.86853E-09  3488   0.988E-05    0.665E-05
DAV:  17    -0.137295215655E+04   -0.17232E-06   -0.56603E-09  3168   0.893E-05    0.391E-05
DAV:  18    -0.137295215666E+04   -0.10911E-06   -0.56361E-09  3168   0.912E-05    0.511E-05
DAV:  19    -0.137295215670E+04   -0.39072E-07   -0.30888E-09  3136   0.851E-05    0.490E-05
DAV:  20    -0.137295215672E+04   -0.14843E-07   -0.11239E-09  3072   0.576E-05    0.317E-05
DAV:  21    -0.137295215672E+04   -0.68831E-08   -0.18830E-10  3072   0.389E-05
   5 F= -.13922497E+04 E0= -.13922497E+04  d E =0.109512E-02  mag=    -0.0000
       N       E                     dE             d eps       ncg     rms          rms(c)
DAV:   1    -0.137295141258E+04    0.74414E-03   -0.11509E+00  5120   0.109E+00    0.985E-02
DAV:   2    -0.137295209409E+04   -0.68152E-03   -0.91144E-03  5600   0.889E-02    0.638E-02
DAV:   3    -0.137295201375E+04    0.80339E-04   -0.76456E-04  6240   0.299E-02    0.315E-02
DAV:   4    -0.137295199491E+04    0.18844E-04   -0.15058E-04  5472   0.148E-02    0.131E-02
DAV:   5    -0.137295199521E+04   -0.30170E-06   -0.25477E-05  5504   0.699E-03    0.765E-03
DAV:   6    -0.137295199469E+04    0.51803E-06   -0.48386E-06  5536   0.258E-03    0.295E-03
DAV:   7    -0.137295199485E+04   -0.15530E-06   -0.11686E-06  7232   0.161E-03    0.146E-03
DAV:   8    -0.137295199509E+04   -0.24313E-06   -0.25074E-07  6272   0.682E-04    0.786E-04
DAV:   9    -0.137295199545E+04   -0.36055E-06   -0.58795E-08  4800   0.384E-04    0.420E-04
DAV:  10    -0.137295199590E+04   -0.44524E-06   -0.56456E-08  4704   0.342E-04    0.249E-04
DAV:  11    -0.137295199626E+04   -0.35892E-06   -0.28739E-08  4256   0.231E-04    0.157E-04
DAV:  12    -0.137295199651E+04   -0.25633E-06   -0.10190E-08  3424   0.134E-04    0.119E-04
DAV:  13    -0.137295199675E+04   -0.23525E-06   -0.13546E-08  3680   0.125E-04    0.901E-05
DAV:  14    -0.137295199685E+04   -0.10460E-06   -0.35070E-09  3232   0.778E-05    0.681E-05
DAV:  15    -0.137295199694E+04   -0.91182E-07   -0.37478E-09  3168   0.707E-05    0.442E-05
DAV:  16    -0.137295199699E+04   -0.44573E-07   -0.10330E-09  3072   0.563E-05    0.307E-05
DAV:  17    -0.137295199703E+04   -0.45809E-07   -0.17273E-09  3072   0.575E-05    0.263E-05
DAV:  18    -0.137295199705E+04   -0.11831E-07   -0.38100E-10  3072   0.492E-05    0.255E-05
DAV:  19    -0.137295199706E+04   -0.12049E-07    0.26940E-10  3008   0.287E-05    0.116E-05
DAV:  20    -0.137295199707E+04   -0.76980E-08    0.54449E-10  3072   0.239E-05
   6 F= -.13922496E+04 E0= -.13922496E+04  d E =0.743581E-04  mag=     0.0000
       N       E                     dE             d eps       ncg     rms          rms(c)
DAV:   1    -0.137295165207E+04    0.34499E-03   -0.11615E+00  5120   0.112E+00    0.188E-01
DAV:   2    -0.137295232345E+04   -0.67139E-03   -0.10630E-02  5664   0.110E-01    0.156E-01
DAV:   3    -0.137295217886E+04    0.14460E-03   -0.13578E-03  6272   0.597E-02    0.713E-02
DAV:   4    -0.137295218201E+04   -0.31567E-05   -0.35326E-04  6176   0.292E-02    0.254E-02
DAV:   5    -0.137295216718E+04    0.14834E-04   -0.15983E-04  5632   0.228E-02    0.107E-02
DAV:   6    -0.137295216752E+04   -0.34300E-06   -0.22193E-05  5568   0.607E-03    0.600E-03
DAV:   7    -0.137295216783E+04   -0.30882E-06   -0.52830E-06  7008   0.347E-03    0.346E-03
DAV:   8    -0.137295216818E+04   -0.34638E-06   -0.93767E-07  5600   0.200E-03    0.214E-03
DAV:   9    -0.137295216892E+04   -0.74082E-06   -0.58603E-07  6720   0.153E-03    0.940E-04
DAV:  10    -0.137295217004E+04   -0.11265E-05   -0.40989E-07  5792   0.112E-03    0.101E-03
DAV:  11    -0.137295217114E+04   -0.11003E-05   -0.21322E-07  6048   0.840E-04    0.503E-04
DAV:  12    -0.137295217189E+04   -0.74063E-06   -0.98911E-08  5440   0.501E-04    0.281E-04
DAV:  13    -0.137295217252E+04   -0.63854E-06   -0.28847E-08  4304   0.256E-04    0.194E-04
DAV:  14    -0.137295217296E+04   -0.44005E-06   -0.17119E-08  4032   0.162E-04    0.109E-04
DAV:  15    -0.137295217347E+04   -0.50891E-06   -0.21520E-08  4064   0.132E-04    0.843E-05
DAV:  16    -0.137295217365E+04   -0.17611E-06   -0.43183E-09  3424   0.758E-05    0.527E-05
DAV:  17    -0.137295217379E+04   -0.14226E-06   -0.40497E-09  3232   0.602E-05    0.388E-05
DAV:  18    -0.137295217389E+04   -0.93904E-07   -0.20800E-09  3072   0.517E-05    0.328E-05
DAV:  19    -0.137295217395E+04   -0.64872E-07   -0.19518E-09  3072   0.481E-05    0.274E-05
DAV:  20    -0.137295217397E+04   -0.18568E-07   -0.25619E-10  3136   0.379E-05    0.205E-05
DAV:  21    -0.137295217398E+04   -0.12806E-07    0.23023E-10  3072   0.269E-05    0.105E-05
DAV:  22    -0.137295217399E+04   -0.91095E-08    0.56560E-10  3072   0.214E-05
   7 F= -.13922508E+04 E0= -.13922508E+04  d E =-.119200E-02  mag=     0.0000
       N       E                     dE             d eps       ncg     rms          rms(c)
DAV:   1    -0.137295169955E+04    0.47443E-03   -0.11560E+00  5120   0.114E+00    0.185E-01
DAV:   2    -0.137295278642E+04   -0.10869E-02   -0.13342E-02  5728   0.113E-01    0.144E-01
DAV:   3    -0.137295262680E+04    0.15962E-03   -0.11926E-03  6592   0.511E-02    0.825E-02
DAV:   4    -0.137295261550E+04    0.11305E-04   -0.57485E-04  5856   0.402E-02    0.281E-02
DAV:   5    -0.137295259603E+04    0.19467E-04   -0.27013E-04  5696   0.289E-02    0.128E-02
DAV:   6    -0.137295259674E+04   -0.71063E-06   -0.33577E-05  5504   0.674E-03    0.791E-03
DAV:   7    -0.137295259655E+04    0.18938E-06   -0.80658E-06  6464   0.402E-03    0.506E-03
DAV:   8    -0.137295259653E+04    0.22672E-07   -0.18432E-06  5984   0.248E-03    0.366E-03
DAV:   9    -0.137295259710E+04   -0.57645E-06   -0.11246E-06  6560   0.224E-03    0.126E-03
DAV:  10    -0.137295259812E+04   -0.10112E-05   -0.72378E-07  5792   0.133E-03    0.130E-03
DAV:  11    -0.137295259906E+04   -0.94388E-06   -0.23256E-07  5888   0.716E-04    0.802E-04
DAV:  12    -0.137295260036E+04   -0.13007E-05   -0.16607E-07  5696   0.781E-04    0.328E-04
DAV:  13    -0.137295260131E+04   -0.95290E-06   -0.90051E-08  4928   0.481E-04    0.216E-04
DAV:  14    -0.137295260188E+04   -0.56649E-06   -0.39650E-08  4416   0.226E-04    0.168E-04
DAV:  15    -0.137295260232E+04   -0.44329E-06   -0.98364E-09  3584   0.118E-04    0.130E-04
DAV:  16    -0.137295260276E+04   -0.43314E-06   -0.16804E-08  3872   0.110E-04    0.802E-05
DAV:  17    -0.137295260295E+04   -0.19313E-06   -0.35764E-09  3232   0.701E-05    0.720E-05
DAV:  18    -0.137295260308E+04   -0.13076E-06   -0.32289E-09  3136   0.623E-05    0.643E-05
DAV:  19    -0.137295260315E+04   -0.69500E-07   -0.23537E-09  3072   0.692E-05    0.416E-05
DAV:  20    -0.137295260318E+04   -0.26761E-07   -0.17288E-09  3136   0.613E-05    0.396E-05
DAV:  21    -0.137295260319E+04   -0.10448E-07   -0.35295E-10  3072   0.421E-05    0.411E-05
DAV:  22    -0.137295260319E+04   -0.43801E-08    0.22926E-10  3072   0.313E-05
   8 F= -.13922501E+04 E0= -.13922501E+04  d E =0.637609E-03  mag=    -0.0000
       N       E                     dE             d eps       ncg     rms          rms(c)
DAV:   1    -0.137295137350E+04    0.12297E-02   -0.11700E+00  5120   0.112E+00    0.320E-01
DAV:   2    -0.137295204398E+04   -0.67048E-03   -0.11230E-02  5824   0.120E-01    0.263E-01
DAV:   3    -0.137295191283E+04    0.13115E-03   -0.30237E-03  5920   0.105E-01    0.512E-02
DAV:   4    -0.137295186857E+04    0.44260E-04   -0.76000E-04  5600   0.422E-02    0.321E-02
DAV:   5    -0.137295186139E+04    0.71780E-05   -0.18762E-04  6400   0.186E-02    0.176E-02
DAV:   6    -0.137295185858E+04    0.28113E-05   -0.31351E-05  6816   0.814E-03    0.738E-03
DAV:   7    -0.137295185879E+04   -0.21466E-06   -0.38239E-06  6560   0.249E-03    0.360E-03
DAV:   8    -0.137295185980E+04   -0.10048E-05   -0.92905E-07  6944   0.153E-03    0.144E-03
DAV:   9    -0.137295186099E+04   -0.11909E-05   -0.28350E-07  5888   0.847E-04    0.869E-04
DAV:  10    -0.137295186256E+04   -0.15715E-05   -0.16404E-07  5248   0.608E-04    0.524E-04
DAV:  11    -0.137295186404E+04   -0.14803E-05   -0.11986E-07  4800   0.542E-04    0.293E-04
DAV:  12    -0.137295186533E+04   -0.12854E-05   -0.88281E-08  4832   0.340E-04    0.248E-04
DAV:  13    -0.137295186609E+04   -0.76575E-06   -0.28295E-08  4256   0.160E-04    0.161E-04
DAV:  14    -0.137295186666E+04   -0.57179E-06   -0.17452E-08  3968   0.115E-04    0.101E-04
DAV:  15    -0.137295186694E+04   -0.27769E-06   -0.46632E-09  3232   0.708E-05    0.612E-05
DAV:  16    -0.137295186715E+04   -0.20859E-06   -0.41221E-09  3136   0.661E-05    0.367E-05
DAV:  17    -0.137295186729E+04   -0.14239E-06   -0.42422E-09  3216   0.690E-05    0.327E-05
DAV:  18    -0.137295186734E+04   -0.51674E-07   -0.17795E-09  3072   0.599E-05    0.214E-05
DAV:  19    -0.137295186739E+04   -0.42593E-07   -0.11622E-09  3072   0.522E-05    0.218E-05
DAV:  20    -0.137295186740E+04   -0.14465E-07   -0.81413E-11  3072   0.322E-05    0.187E-05
DAV:  21    -0.137295186741E+04   -0.72614E-08    0.31897E-10  2944   0.237E-05
   9 F= -.13922498E+04 E0= -.13922498E+04  d E =0.290486E-03  mag=     0.0000
       N       E                     dE             d eps       ncg     rms          rms(c)
DAV:   1    -0.137295166389E+04    0.20351E-03   -0.11450E+00  5120   0.112E+00    0.237E-01
DAV:   2    -0.137295266306E+04   -0.99917E-03   -0.12595E-02  5696   0.103E-01    0.174E-01
DAV:   3    -0.137295249958E+04    0.16348E-03   -0.14326E-03  6528   0.527E-02    0.810E-02
DAV:   4    -0.137295249732E+04    0.22602E-05   -0.31641E-04  5888   0.218E-02    0.313E-02
DAV:   5    -0.137295248426E+04    0.13065E-04   -0.15028E-04  5952   0.190E-02    0.127E-02
DAV:   6    -0.137295248431E+04   -0.52678E-07   -0.19798E-05  5664   0.588E-03    0.637E-03
DAV:   7    -0.137295248662E+04   -0.23092E-05   -0.66885E-06  6560   0.368E-03    0.310E-03
DAV:   8    -0.137295248809E+04   -0.14757E-05   -0.11197E-06  6016   0.154E-03    0.179E-03
DAV:   9    -0.137295249096E+04   -0.28621E-05   -0.84295E-07  5280   0.144E-03    0.125E-03
DAV:  10    -0.137295249364E+04   -0.26861E-05   -0.32730E-07  5664   0.824E-04    0.114E-03
DAV:  11    -0.137295249620E+04   -0.25558E-05   -0.46805E-07  5664   0.933E-04    0.493E-04
DAV:  12    -0.137295249806E+04   -0.18591E-05   -0.17971E-07  5152   0.562E-04    0.558E-04
DAV:  13    -0.137295249904E+04   -0.98209E-06   -0.57888E-08  4864   0.279E-04    0.249E-04
DAV:  14    -0.137295250021E+04   -0.11703E-05   -0.60606E-08  4640   0.200E-04    0.139E-04
DAV:  15    -0.137295250067E+04   -0.45919E-06   -0.12465E-08  4000   0.103E-04    0.871E-05
DAV:  16    -0.137295250112E+04   -0.45246E-06   -0.17830E-08  4064   0.972E-05    0.597E-05
DAV:  17    -0.137295250129E+04   -0.17356E-06   -0.23382E-09  3168   0.542E-05    0.537E-05
DAV:  18    -0.137295250140E+04   -0.10675E-06   -0.28466E-09  3168   0.560E-05    0.254E-05
DAV:  19    -0.137295250145E+04   -0.48589E-07   -0.91956E-10  3136   0.535E-05    0.186E-05
DAV:  20    -0.137295250149E+04   -0.40483E-07   -0.68919E-10  3072   0.435E-05    0.234E-05
DAV:  21    -0.137295250150E+04   -0.13533E-07    0.21847E-10  3072   0.304E-05    0.201E-05
DAV:  22    -0.137295250151E+04   -0.87603E-08    0.55733E-10  3072   0.226E-05
  10 F= -.13922510E+04 E0= -.13922510E+04  d E =-.119143E-02  mag=    -0.0000
       N       E                     dE             d eps       ncg     rms          rms(c)
DAV:   1    -0.137295187314E+04    0.62836E-03   -0.61104E-01  5120   0.833E-01    0.143E-01
DAV:   2    -0.137295236530E+04   -0.49215E-03   -0.72690E-03  5888   0.825E-02    0.967E-02
DAV:   3    -0.137295226485E+04    0.10045E-03   -0.81466E-04  6400   0.391E-02    0.549E-02
DAV:   4    -0.137295225660E+04    0.82497E-05   -0.21584E-04  5472   0.212E-02    0.207E-02
DAV:   5    -0.137295224990E+04    0.66990E-05   -0.78029E-05  5504   0.143E-02    0.946E-03
DAV:   6    -0.137295224947E+04    0.42298E-06   -0.12063E-05  5760   0.451E-03    0.478E-03
DAV:   7    -0.137295224959E+04   -0.11211E-06   -0.27506E-06  6672   0.255E-03    0.264E-03
DAV:   8    -0.137295225005E+04   -0.46918E-06   -0.43711E-07  6464   0.126E-03    0.140E-03
DAV:   9    -0.137295225095E+04   -0.89029E-06   -0.27974E-07  5648   0.123E-03    0.673E-04
DAV:  10    -0.137295225197E+04   -0.10233E-05   -0.23768E-07  5552   0.875E-04    0.620E-04
DAV:  11    -0.137295225314E+04   -0.11715E-05   -0.15193E-07  5248   0.684E-04    0.367E-04
DAV:  12    -0.137295225382E+04   -0.67819E-06   -0.86099E-08  5056   0.433E-04    0.257E-04
DAV:  13    -0.137295225425E+04   -0.43584E-06   -0.21251E-08  4320   0.211E-04    0.181E-04
DAV:  14    -0.137295225469E+04   -0.43891E-06   -0.11750E-08  3712   0.130E-04    0.110E-04
DAV:  15    -0.137295225506E+04   -0.36952E-06   -0.11859E-08  3904   0.103E-04    0.808E-05
DAV:  16    -0.137295225529E+04   -0.22679E-06   -0.50590E-09  3328   0.785E-05    0.539E-05
DAV:  17    -0.137295225541E+04   -0.11720E-06   -0.22199E-09  3136   0.550E-05    0.371E-05
DAV:  18    -0.137295225548E+04   -0.69136E-07   -0.17347E-09  3104   0.502E-05    0.265E-05
DAV:  19    -0.137295225551E+04   -0.31316E-07   -0.10976E-09  3104   0.443E-05    0.229E-05
DAV:  20    -0.137295225552E+04   -0.12646E-07   -0.22036E-10  3136   0.361E-05    0.175E-05
DAV:  21    -0.137295225552E+04   -0.41036E-08    0.32373E-10  3072   0.241E-05
  11 F= -.13922501E+04 E0= -.13922501E+04  d E =0.903966E-03  mag=     0.0000
       N       E                     dE             d eps       ncg     rms          rms(c)
DAV:   1    -0.137295235459E+04   -0.99072E-04   -0.73243E-02  5184   0.185E-01    0.848E-02
DAV:   2    -0.137295236147E+04   -0.68784E-05   -0.58623E-04  5248   0.163E-02    0.509E-02
DAV:   3    -0.137295235570E+04    0.57704E-05   -0.16524E-04  5376   0.830E-03    0.109E-02
DAV:   4    -0.137295235360E+04    0.20982E-05   -0.18403E-05  4928   0.274E-03    0.668E-03
DAV:   5    -0.137295235321E+04    0.39239E-06   -0.71803E-06  4816   0.175E-03    0.147E-03
DAV:   6    -0.137295235329E+04   -0.85231E-07   -0.57402E-07  4544   0.546E-04    0.828E-04
DAV:   7    -0.137295235336E+04   -0.62413E-07   -0.84043E-08  4384   0.229E-04    0.286E-04
DAV:   8    -0.137295235343E+04   -0.78086E-07   -0.17457E-08  3616   0.112E-04    0.182E-04
DAV:   9    -0.137295235353E+04   -0.93074E-07   -0.50104E-09  3392   0.828E-05    0.831E-05
DAV:  10    -0.137295235361E+04   -0.82349E-07   -0.31138E-09  3168   0.705E-05    0.584E-05
DAV:  11    -0.137295235367E+04   -0.63563E-07   -0.18734E-09  3136   0.585E-05    0.431E-05
DAV:  12    -0.137295235373E+04   -0.52692E-07   -0.19792E-09  3072   0.652E-05    0.224E-05
DAV:  13    -0.137295235376E+04   -0.36554E-07   -0.17599E-09  3072   0.630E-05    0.210E-05
DAV:  14    -0.137295235379E+04   -0.22090E-07   -0.45638E-10  3072   0.392E-05    0.189E-05
DAV:  15    -0.137295235380E+04   -0.16327E-07    0.84119E-11  3072   0.259E-05    0.843E-06
DAV:  16    -0.137295235381E+04   -0.61409E-08    0.50337E-10  3072   0.179E-05
  12 F= -.13922502E+04 E0= -.13922502E+04  d E =-.106506E-03  mag=     0.0000
       N       E                     dE             d eps       ncg     rms          rms(c)
DAV:   1    -0.137295199461E+04    0.35919E-03   -0.77721E-02  5184   0.189E-01    0.110E-01
DAV:   2    -0.137295191133E+04    0.83287E-04   -0.87138E-04  5376   0.212E-02    0.640E-02
DAV:   3    -0.137295188972E+04    0.21606E-04   -0.49642E-04  5472   0.141E-02    0.212E-02
DAV:   4    -0.137295188031E+04    0.94058E-05   -0.54529E-05  5248   0.471E-03    0.134E-02
DAV:   5    -0.137295187857E+04    0.17477E-05   -0.20831E-05  4896   0.269E-03    0.229E-03
DAV:   6    -0.137295187854E+04    0.22148E-07   -0.12393E-06  4960   0.822E-04    0.105E-03
DAV:   7    -0.137295187855E+04   -0.84401E-08   -0.21253E-07  4896   0.337E-04    0.617E-04
DAV:   8    -0.137295187864E+04   -0.83877E-07   -0.41153E-08  3968   0.198E-04    0.218E-04
DAV:   9    -0.137295187872E+04   -0.88170E-07   -0.14412E-08  3808   0.128E-04    0.144E-04
DAV:  10    -0.137295187880E+04   -0.78260E-07   -0.20231E-09  3136   0.595E-05    0.961E-05
DAV:  11    -0.137295187890E+04   -0.10018E-06   -0.39237E-09  3424   0.569E-05    0.522E-05
DAV:  12    -0.137295187896E+04   -0.54511E-07   -0.87438E-10  3072   0.458E-05    0.323E-05
DAV:  13    -0.137295187903E+04   -0.77227E-07   -0.24637E-09  3232   0.561E-05    0.281E-05
DAV:  14    -0.137295187906E+04   -0.27110E-07   -0.53000E-10  3072   0.487E-05    0.213E-05
DAV:  15    -0.137295187908E+04   -0.20154E-07   -0.25313E-11  3072   0.346E-05    0.133E-05
DAV:  16    -0.137295187910E+04   -0.16982E-07    0.17116E-10  3072   0.299E-05    0.142E-05
DAV:  17    -0.137295187911E+04   -0.74506E-08    0.59345E-10  3072   0.210E-05
  13 F= -.13922495E+04 E0= -.13922495E+04  d E =0.782369E-03  mag=     0.0000
       N       E                     dE             d eps       ncg     rms          rms(c)
DAV:   1    -0.137295214296E+04   -0.26386E-03   -0.79402E-02  5088   0.195E-01    0.118E-01
DAV:   2    -0.137295205030E+04    0.92661E-04   -0.13950E-03  5376   0.265E-02    0.704E-02
DAV:   3    -0.137295202258E+04    0.27717E-04   -0.69613E-04  5504   0.159E-02    0.265E-02
DAV:   4    -0.137295200773E+04    0.14846E-04   -0.89571E-05  5504   0.568E-03    0.150E-02
DAV:   5    -0.137295200677E+04    0.95957E-06   -0.24243E-05  5568   0.287E-03    0.231E-03
DAV:   6    -0.137295200679E+04   -0.11671E-07   -0.12196E-06  4832   0.860E-04    0.105E-03
DAV:   7    -0.137295200683E+04   -0.47061E-07   -0.20641E-07  5024   0.336E-04    0.508E-04
DAV:   8    -0.137295200689E+04   -0.60041E-07   -0.21459E-08  3872   0.165E-04    0.215E-04
DAV:   9    -0.137295200694E+04   -0.49622E-07   -0.72518E-09  3488   0.107E-04    0.113E-04
DAV:  10    -0.137295200698E+04   -0.42695E-07   -0.25140E-09  3072   0.683E-05    0.645E-05
DAV:  11    -0.137295200703E+04   -0.43903E-07   -0.18568E-09  3136   0.556E-05    0.477E-05
DAV:  12    -0.137295200706E+04   -0.28478E-07   -0.99513E-10  3072   0.474E-05    0.292E-05
DAV:  13    -0.137295200709E+04   -0.33979E-07   -0.14193E-09  3072   0.525E-05    0.208E-05
DAV:  14    -0.137295200711E+04   -0.14086E-07   -0.58104E-10  3072   0.429E-05    0.192E-05
DAV:  15    -0.137295200712E+04   -0.10492E-07    0.80345E-12  3072   0.297E-05    0.107E-05
DAV:  16    -0.137295200713E+04   -0.10914E-07    0.27143E-10  3072   0.221E-05    0.113E-05
DAV:  17    -0.137295200713E+04   -0.23138E-08    0.59343E-10  2816   0.154E-05
  14 F= -.13922499E+04 E0= -.13922499E+04  d E =-.449778E-03  mag=     0.0000
       N       E                     dE             d eps       ncg     rms          rms(c)
DAV:   1    -0.137295241453E+04   -0.40740E-03   -0.80488E-02  4992   0.174E-01    0.123E-01
DAV:   2    -0.137295227308E+04    0.14144E-03   -0.11195E-03  5312   0.226E-02    0.699E-02
DAV:   3    -0.137295223782E+04    0.35261E-04   -0.62571E-04  5408   0.141E-02    0.233E-02
DAV:   4    -0.137295222706E+04    0.10761E-04   -0.66862E-05  4992   0.479E-03    0.148E-02
DAV:   5    -0.137295222612E+04    0.94296E-06   -0.18494E-05  5824   0.246E-03    0.307E-03
DAV:   6    -0.137295222599E+04    0.12535E-06   -0.15825E-06  4768   0.837E-04    0.116E-03
DAV:   7    -0.137295222607E+04   -0.80516E-07   -0.31561E-07  4992   0.349E-04    0.839E-04
DAV:   8    -0.137295222614E+04   -0.66750E-07   -0.28533E-08  3744   0.160E-04    0.325E-04
DAV:   9    -0.137295222621E+04   -0.66138E-07   -0.21328E-08  3936   0.128E-04    0.137E-04
DAV:  10    -0.137295222626E+04   -0.53828E-07   -0.28372E-09  3296   0.749E-05    0.881E-05
DAV:  11    -0.137295222631E+04   -0.46901E-07   -0.16605E-09  3136   0.613E-05    0.485E-05
DAV:  12    -0.137295222636E+04   -0.48880E-07   -0.22694E-09  3200   0.703E-05    0.329E-05
DAV:  13    -0.137295222639E+04   -0.31127E-07   -0.23073E-09  3200   0.679E-05    0.353E-05
DAV:  14    -0.137295222640E+04   -0.15512E-07   -0.13021E-09  3136   0.589E-05    0.200E-05
DAV:  15    -0.137295222641E+04   -0.90513E-08   -0.59846E-10  3088   0.391E-05
  15 F= -.13922500E+04 E0= -.13922500E+04  d E =-.935027E-04  mag=    -0.0000
       N       E                     dE             d eps       ncg     rms          rms(c)
DAV:   1    -0.137295237574E+04   -0.14933E-03   -0.80201E-02  5120   0.174E-01    0.121E-01
DAV:   2    -0.137295225490E+04    0.12084E-03   -0.10683E-03  5344   0.216E-02    0.697E-02
DAV:   3    -0.137295222023E+04    0.34665E-04   -0.62016E-04  5120   0.142E-02    0.238E-02
DAV:   4    -0.137295220942E+04    0.10818E-04   -0.67548E-05  4864   0.478E-03    0.154E-02
DAV:   5    -0.137295220822E+04    0.11954E-05   -0.19991E-05  5312   0.245E-03    0.321E-03
DAV:   6    -0.137295220812E+04    0.10572E-06   -0.18349E-06  4672   0.819E-04    0.112E-03
DAV:   7    -0.137295220824E+04   -0.11935E-06   -0.35619E-07  5088   0.368E-04    0.830E-04
DAV:   8    -0.137295220838E+04   -0.14239E-06   -0.50361E-08  3776   0.171E-04    0.286E-04
DAV:   9    -0.137295220851E+04   -0.13044E-06   -0.22585E-08  3824   0.110E-04    0.171E-04
DAV:  10    -0.137295220867E+04   -0.16313E-06   -0.79077E-09  3616   0.837E-05    0.799E-05
DAV:  11    -0.137295220876E+04   -0.86351E-07   -0.35961E-09  3232   0.662E-05    0.566E-05
DAV:  12    -0.137295220885E+04   -0.91008E-07   -0.47862E-09  3392   0.745E-05    0.382E-05
DAV:  13    -0.137295220890E+04   -0.56461E-07   -0.29979E-09  3136   0.618E-05    0.334E-05
DAV:  14    -0.137295220894E+04   -0.32232E-07   -0.10113E-09  3072   0.453E-05    0.213E-05
DAV:  15    -0.137295220897E+04   -0.35259E-07   -0.14824E-09  3072   0.457E-05    0.195E-05
DAV:  16    -0.137295220898E+04   -0.50495E-08   -0.23435E-10  3072   0.346E-05
  16 F= -.13922497E+04 E0= -.13922497E+04  d E =0.257676E-03  mag=     0.0000
       N       E                     dE             d eps       ncg     rms          rms(c)
DAV:   1    -0.137295231192E+04   -0.10295E-03   -0.76273E-02  5168   0.187E-01    0.100E-01
DAV:   2    -0.137295228180E+04    0.30114E-04   -0.91935E-04  5024   0.200E-02    0.613E-02
DAV:   3    -0.137295226652E+04    0.15282E-04   -0.47159E-04  5296   0.132E-02    0.204E-02
DAV:   4    -0.137295225781E+04    0.87154E-05   -0.54930E-05  4736   0.449E-03    0.136E-02
DAV:   5    -0.137295225580E+04    0.20058E-05   -0.22104E-05  4704   0.271E-03    0.289E-03
DAV:   6    -0.137295225606E+04   -0.25891E-06   -0.18028E-06  4896   0.885E-04    0.118E-03
DAV:   7    -0.137295225641E+04   -0.35536E-06   -0.37984E-07  4640   0.381E-04    0.884E-04
DAV:   8    -0.137295225691E+04   -0.49343E-06   -0.91061E-08  4096   0.205E-04    0.320E-04
DAV:   9    -0.137295225724E+04   -0.33408E-06   -0.30782E-08  3904   0.127E-04    0.205E-04
DAV:  10    -0.137295225769E+04   -0.44520E-06   -0.17662E-08  3968   0.102E-04    0.116E-04
DAV:  11    -0.137295225793E+04   -0.24484E-06   -0.71461E-09  3456   0.879E-05    0.989E-05
DAV:  12    -0.137295225817E+04   -0.24259E-06   -0.12909E-08  3936   0.128E-04    0.474E-05
DAV:  13    -0.137295225828E+04   -0.10838E-06   -0.65167E-09  3328   0.138E-04    0.482E-05
DAV:  14    -0.137295225836E+04   -0.72119E-07   -0.27274E-09  3072   0.804E-05    0.305E-05
DAV:  15    -0.137295225842E+04   -0.62908E-07   -0.21305E-09  3104   0.554E-05    0.165E-05
DAV:  16    -0.137295225844E+04   -0.19121E-07   -0.48377E-10  3072   0.378E-05    0.160E-05
DAV:  17    -0.137295225846E+04   -0.19601E-07   -0.17117E-11  3072   0.273E-05    0.167E-05
DAV:  18    -0.137295225846E+04   -0.39872E-08    0.44843E-10  3072   0.186E-05
  17 F= -.13922500E+04 E0= -.13922500E+04  d E =-.276417E-03  mag=     0.0000
       N       E                     dE             d eps       ncg     rms          rms(c)
DAV:   1    -0.137295249323E+04   -0.23478E-03   -0.73430E-02  4352   0.178E-01    0.837E-02
DAV:   2    -0.137295249554E+04   -0.23066E-05   -0.53925E-04  4640   0.144E-02    0.509E-02
DAV:   3    -0.137295249301E+04    0.25304E-05   -0.16902E-04  5152   0.811E-03    0.111E-02
DAV:   4    -0.137295249082E+04    0.21928E-05   -0.18320E-05  4832   0.276E-03    0.727E-03
DAV:   5    -0.137295249080E+04    0.20445E-07   -0.96999E-06  4544   0.195E-03    0.155E-03
DAV:   6    -0.137295249129E+04   -0.49656E-06   -0.62335E-07  4800   0.669E-04    0.902E-04
DAV:   7    -0.137295249201E+04   -0.71595E-06   -0.10853E-07  4256   0.249E-04    0.438E-04
DAV:   8    -0.137295249282E+04   -0.81223E-06   -0.55375E-08  4096   0.149E-04    0.257E-04
DAV:   9    -0.137295249350E+04   -0.67829E-06   -0.26089E-08  3952   0.123E-04    0.137E-04
DAV:  10    -0.137295249418E+04   -0.68043E-06   -0.28819E-08  4000   0.994E-05    0.140E-04
DAV:  11    -0.137295249461E+04   -0.43254E-06   -0.15626E-08  3808   0.998E-05    0.777E-05
DAV:  12    -0.137295249485E+04   -0.24030E-06   -0.87038E-09  3648   0.992E-05    0.515E-05
DAV:  13    -0.137295249502E+04   -0.16944E-06   -0.51487E-09  3328   0.923E-05    0.471E-05
DAV:  14    -0.137295249512E+04   -0.95475E-07   -0.32085E-09  3168   0.750E-05    0.244E-05
DAV:  15    -0.137295249515E+04   -0.37529E-07   -0.95747E-10  3136   0.471E-05    0.145E-05
DAV:  16    -0.137295249519E+04   -0.38344E-07   -0.41474E-10  3072   0.359E-05    0.110E-05
DAV:  17    -0.137295249521E+04   -0.13097E-07    0.29966E-10  3072   0.240E-05    0.121E-05
DAV:  18    -0.137295249521E+04   -0.67230E-08    0.52750E-10  3072   0.159E-05
  18 F= -.13922504E+04 E0= -.13922504E+04  d E =-.337538E-03  mag=     0.0000
       N       E                     dE             d eps       ncg     rms          rms(c)
DAV:   1    -0.137295176836E+04    0.72685E-03   -0.78535E-02  4416   0.182E-01    0.113E-01
DAV:   2    -0.137295167737E+04    0.90986E-04   -0.10953E-03  4608   0.214E-02    0.651E-02
DAV:   3    -0.137295165341E+04    0.23959E-04   -0.55456E-04  5280   0.143E-02    0.221E-02
DAV:   4    -0.137295164337E+04    0.10040E-04   -0.59918E-05  4800   0.483E-03    0.136E-02
DAV:   5    -0.137295164250E+04    0.87265E-06   -0.18907E-05  5408   0.266E-03    0.254E-03
DAV:   6    -0.137295164269E+04   -0.18673E-06   -0.11803E-06  4608   0.780E-04    0.111E-03
DAV:   7    -0.137295164306E+04   -0.37646E-06   -0.26952E-07  4832   0.342E-04    0.848E-04
DAV:   8    -0.137295164353E+04   -0.46828E-06   -0.53810E-08  4128   0.178E-04    0.250E-04
DAV:   9    -0.137295164388E+04   -0.34517E-06   -0.25535E-08  3776   0.112E-04    0.221E-04
DAV:  10    -0.137295164424E+04   -0.36029E-06   -0.14452E-08  3904   0.104E-04    0.993E-05
DAV:  11    -0.137295164449E+04   -0.25409E-06   -0.96077E-09  3616   0.940E-05    0.801E-05
DAV:  12    -0.137295164468E+04   -0.19022E-06   -0.79197E-09  3552   0.937E-05    0.516E-05
DAV:  13    -0.137295164481E+04   -0.12480E-06   -0.56873E-09  3392   0.907E-05    0.398E-05
DAV:  14    -0.137295164487E+04   -0.66459E-07   -0.24946E-09  3136   0.673E-05    0.239E-05
DAV:  15    -0.137295164492E+04   -0.49535E-07   -0.17938E-09  3072   0.526E-05    0.181E-05
DAV:  16    -0.137295164495E+04   -0.25393E-07   -0.54695E-10  3136   0.376E-05    0.169E-05
DAV:  17    -0.137295164497E+04   -0.18146E-07   -0.75134E-11  3072   0.284E-05    0.123E-05
DAV:  18    -0.137295164497E+04   -0.98808E-08    0.37446E-10  3072   0.186E-05
  19 F= -.13922495E+04 E0= -.13922495E+04  d E =0.854441E-03  mag=     0.0000
       N       E                     dE             d eps       ncg     rms          rms(c)
DAV:   1    -0.137295236743E+04   -0.72246E-03   -0.78758E-02  4544   0.195E-01    0.112E-01
DAV:   2    -0.137295231086E+04    0.56564E-04   -0.13273E-03  4832   0.255E-02    0.676E-02
DAV:   3    -0.137295228282E+04    0.28041E-04   -0.64497E-04  5344   0.157E-02    0.240E-02
DAV:   4    -0.137295227130E+04    0.11515E-04   -0.66489E-05  4992   0.521E-03    0.150E-02
DAV:   5    -0.137295226953E+04    0.17737E-05   -0.25737E-05  5216   0.310E-03    0.268E-03
DAV:   6    -0.137295226974E+04   -0.20629E-06   -0.15925E-06  4864   0.872E-04    0.121E-03
DAV:   7    -0.137295226999E+04   -0.24802E-06   -0.32135E-07  4896   0.406E-04    0.800E-04
DAV:   8    -0.137295227028E+04   -0.29602E-06   -0.52958E-08  4000   0.199E-04    0.321E-04
DAV:   9    -0.137295227058E+04   -0.29622E-06   -0.23556E-08  3776   0.121E-04    0.186E-04
DAV:  10    -0.137295227093E+04   -0.35162E-06   -0.13638E-08  3840   0.112E-04    0.118E-04
DAV:  11    -0.137295227118E+04   -0.24607E-06   -0.10093E-08  3584   0.995E-05    0.737E-05
DAV:  12    -0.137295227137E+04   -0.19619E-06   -0.89987E-09  3616   0.109E-04    0.543E-05
DAV:  13    -0.137295227147E+04   -0.94937E-07   -0.46599E-09  3232   0.102E-04    0.423E-05
DAV:  14    -0.137295227152E+04   -0.56898E-07   -0.27660E-09  3072   0.739E-05    0.252E-05
DAV:  15    -0.137295227156E+04   -0.38664E-07   -0.22823E-09  3072   0.607E-05    0.177E-05
DAV:  16    -0.137295227157E+04   -0.92405E-08   -0.54040E-10  3072   0.394E-05
  20 F= -.13922500E+04 E0= -.13922500E+04  d E =-.532342E-03  mag=    -0.0000
       N       E                     dE             d eps       ncg     rms          rms(c)
DAV:   1    -0.137295252179E+04   -0.25023E-03   -0.72839E-02  4512   0.177E-01    0.838E-02
DAV:   2    -0.137295251988E+04    0.19105E-05   -0.52739E-04  4864   0.147E-02    0.501E-02
DAV:   3    -0.137295251908E+04    0.79631E-06   -0.15666E-04  5440   0.725E-03    0.112E-02
DAV:   4    -0.137295251669E+04    0.23890E-05   -0.15524E-05  4704   0.246E-03    0.701E-03
DAV:   5    -0.137295251660E+04    0.92259E-07   -0.79372E-06  4864   0.165E-03    0.144E-03
DAV:   6    -0.137295251695E+04   -0.34545E-06   -0.57191E-07  4608   0.523E-04    0.854E-04
DAV:   7    -0.137295251744E+04   -0.49402E-06   -0.82527E-08  4096   0.221E-04    0.367E-04
DAV:   8    -0.137295251795E+04   -0.50977E-06   -0.33469E-08  4000   0.126E-04    0.231E-04
DAV:   9    -0.137295251853E+04   -0.57470E-06   -0.25194E-08  4000   0.138E-04    0.123E-04
DAV:  10    -0.137295251888E+04   -0.35259E-06   -0.12257E-08  3616   0.119E-04    0.120E-04
DAV:  11    -0.137295251916E+04   -0.28603E-06   -0.10186E-08  3680   0.119E-04    0.693E-05
DAV:  12    -0.137295251936E+04   -0.19414E-06   -0.68960E-09  3456   0.101E-04    0.455E-05
DAV:  13    -0.137295251952E+04   -0.16394E-06   -0.50302E-09  3296   0.745E-05    0.323E-05
DAV:  14    -0.137295251959E+04   -0.68292E-07   -0.22451E-09  3072   0.667E-05    0.236E-05
DAV:  15    -0.137295251962E+04   -0.33164E-07   -0.82135E-10  3072   0.458E-05    0.120E-05
DAV:  16    -0.137295251966E+04   -0.35463E-07   -0.43138E-10  3072   0.345E-05    0.162E-05
DAV:  17    -0.137295251967E+04   -0.84110E-08    0.37751E-10  3072   0.215E-05
  21 F= -.13922504E+04 E0= -.13922504E+04  d E =-.334444E-03  mag=     0.0000
       N       E                     dE             d eps       ncg     rms          rms(c)
DAV:   1    -0.137295176922E+04    0.75044E-03   -0.76741E-02  4544   0.179E-01    0.107E-01
DAV:   2    -0.137295169317E+04    0.76048E-04   -0.92603E-04  4928   0.198E-02    0.618E-02
DAV:   3    -0.137295167306E+04    0.20112E-04   -0.45759E-04  5216   0.123E-02    0.204E-02
DAV:   4    -0.137295166518E+04    0.78854E-05   -0.47574E-05  4928   0.412E-03    0.133E-02
DAV:   5    -0.137295166424E+04    0.94042E-06   -0.17676E-05  4992   0.237E-03    0.251E-03
DAV:   6    -0.137295166451E+04   -0.27445E-06   -0.12832E-06  4704   0.755E-04    0.109E-03
DAV:   7    -0.137295166493E+04   -0.41490E-06   -0.30579E-07  5152   0.349E-04    0.783E-04
DAV:   8    -0.137295166541E+04   -0.48144E-06   -0.64598E-08  4096   0.172E-04    0.269E-04
DAV:   9    -0.137295166581E+04   -0.40668E-06   -0.26372E-08  4064   0.107E-04    0.192E-04
DAV:  10    -0.137295166632E+04   -0.50438E-06   -0.20633E-08  4000   0.985E-05    0.936E-05
DAV:  11    -0.137295166659E+04   -0.26778E-06   -0.93091E-09  3584   0.907E-05    0.635E-05
DAV:  12    -0.137295166683E+04   -0.24008E-06   -0.10886E-08  3840   0.111E-04    0.537E-05
DAV:  13    -0.137295166692E+04   -0.91823E-07   -0.28558E-09  3168   0.896E-05    0.412E-05
DAV:  14    -0.137295166701E+04   -0.87239E-07   -0.23054E-09  3168   0.546E-05    0.213E-05
DAV:  15    -0.137295166706E+04   -0.57466E-07   -0.14233E-09  3072   0.532E-05    0.195E-05
DAV:  16    -0.137295166708E+04   -0.20533E-07   -0.26447E-10  3072   0.392E-05    0.159E-05
DAV:  17    -0.137295166711E+04   -0.24200E-07    0.89928E-11  3072   0.276E-05    0.117E-05
DAV:  18    -0.137295166711E+04   -0.57480E-08    0.49156E-10  3072   0.167E-05
  22 F= -.13922494E+04 E0= -.13922494E+04  d E =0.918650E-03  mag=    -0.0000
       N       E                     dE             d eps       ncg     rms          rms(c)
DAV:   1    -0.137295261933E+04   -0.95222E-03   -0.77067E-02  4608   0.182E-01    0.106E-01
DAV:   2    -0.137295257385E+04    0.45482E-04   -0.11544E-03  5408   0.231E-02    0.642E-02
DAV:   3    -0.137295255432E+04    0.19527E-04   -0.62321E-04  5344   0.148E-02    0.227E-02
DAV:   4    -0.137295254340E+04    0.10923E-04   -0.73174E-05  4864   0.503E-03    0.155E-02
DAV:   5    -0.137295254124E+04    0.21594E-05   -0.23981E-05  4992   0.273E-03    0.384E-03
DAV:   6    -0.137295254109E+04    0.14500E-06   -0.29269E-06  4816   0.106E-03    0.127E-03
DAV:   7    -0.137295254126E+04   -0.16688E-06   -0.51881E-07  5008   0.469E-04    0.117E-03
DAV:   8    -0.137295254145E+04   -0.18864E-06   -0.98405E-08  4096   0.229E-04    0.413E-04
DAV:   9    -0.137295254160E+04   -0.15309E-06   -0.45482E-08  3840   0.147E-04    0.228E-04
DAV:  10    -0.137295254177E+04   -0.17080E-06   -0.92936E-09  3552   0.947E-05    0.133E-04
DAV:  11    -0.137295254190E+04   -0.12327E-06   -0.51685E-09  3392   0.784E-05    0.865E-05
DAV:  12    -0.137295254205E+04   -0.15723E-06   -0.11784E-08  3776   0.129E-04    0.486E-05
DAV:  13    -0.137295254211E+04   -0.54511E-07   -0.50867E-09  3328   0.132E-04    0.416E-05
DAV:  14    -0.137295254214E+04   -0.31243E-07   -0.19650E-09  3168   0.797E-05    0.284E-05
DAV:  15    -0.137295254218E+04   -0.39450E-07   -0.16935E-09  3072   0.588E-05    0.158E-05
DAV:  16    -0.137295254220E+04   -0.16968E-07   -0.58614E-10  3072   0.409E-05    0.139E-05
DAV:  17    -0.137295254220E+04   -0.75233E-08    0.52340E-11  3072   0.248E-05
  23 F= -.13922503E+04 E0= -.13922503E+04  d E =-.882630E-03  mag=     0.0000
       N       E                     dE             d eps       ncg     rms          rms(c)
DAV:   1    -0.137295147238E+04    0.10698E-02   -0.81499E-02  4608   0.158E-01    0.125E-01
DAV:   2    -0.137295133616E+04    0.13623E-03   -0.12585E-03  4864   0.221E-02    0.720E-02
DAV:   3    -0.137295130357E+04    0.32589E-04   -0.80726E-04  5120   0.168E-02    0.271E-02
DAV:   4    -0.137295128758E+04    0.15987E-04   -0.84861E-05  4800   0.560E-03    0.174E-02
DAV:   5    -0.137295128554E+04    0.20367E-05   -0.28513E-05  5280   0.317E-03    0.360E-03
DAV:   6    -0.137295128535E+04    0.19600E-06   -0.25873E-06  4768   0.112E-03    0.119E-03
DAV:   7    -0.137295128541E+04   -0.61773E-07   -0.38519E-07  5088   0.434E-04    0.114E-03
DAV:   8    -0.137295128548E+04   -0.71057E-07   -0.58346E-08  4064   0.270E-04    0.400E-04
DAV:   9    -0.137295128556E+04   -0.82684E-07   -0.53600E-08  4192   0.221E-04    0.278E-04
DAV:  10    -0.137295128565E+04   -0.91910E-07   -0.98888E-09  3616   0.120E-04    0.111E-04
DAV:  11    -0.137295128573E+04   -0.70460E-07   -0.42532E-09  3424   0.924E-05    0.719E-05
DAV:  12    -0.137295128580E+04   -0.75597E-07   -0.47631E-09  3232   0.956E-05    0.459E-05
DAV:  13    -0.137295128585E+04   -0.44573E-07   -0.27443E-09  3072   0.754E-05    0.366E-05
DAV:  14    -0.137295128588E+04   -0.31374E-07   -0.17930E-09  3136   0.605E-05    0.259E-05
DAV:  15    -0.137295128590E+04   -0.27052E-07   -0.17837E-09  3072   0.584E-05    0.183E-05
DAV:  16    -0.137295128591E+04   -0.10681E-07   -0.51856E-10  3104   0.400E-05    0.175E-05
DAV:  17    -0.137295128593E+04   -0.13926E-07   -0.98393E-11  3072   0.288E-05    0.182E-05
DAV:  18    -0.137295128593E+04   -0.27794E-08    0.25689E-10  3008   0.209E-05
  24 F= -.13922491E+04 E0= -.13922491E+04  d E =0.118468E-02  mag=     0.0000
       N       E                     dE             d eps       ncg     rms          rms(c)
DAV:   1    -0.137295275466E+04   -0.14687E-02   -0.74803E-02  4640   0.153E-01    0.929E-02
DAV:   2    -0.137295274274E+04    0.11920E-04   -0.72656E-04  5216   0.157E-02    0.555E-02
DAV:   3    -0.137295273439E+04    0.83487E-05   -0.29212E-04  5504   0.104E-02    0.159E-02
DAV:   4    -0.137295272906E+04    0.53340E-05   -0.31409E-05  4800   0.354E-03    0.102E-02
DAV:   5    -0.137295272823E+04    0.82990E-06   -0.15557E-05  4896   0.238E-03    0.174E-03
DAV:   6    -0.137295272835E+04   -0.12034E-06   -0.78992E-07  4832   0.710E-04    0.102E-03
DAV:   7    -0.137295272848E+04   -0.13802E-06   -0.14213E-07  4384   0.283E-04    0.580E-04
DAV:   8    -0.137295272863E+04   -0.14446E-06   -0.32468E-08  3712   0.189E-04    0.243E-04
DAV:   9    -0.137295272875E+04   -0.12075E-06   -0.19239E-08  3968   0.149E-04    0.145E-04
DAV:  10    -0.137295272885E+04   -0.10108E-06   -0.38696E-09  3328   0.934E-05    0.920E-05
DAV:  11    -0.137295272894E+04   -0.92565E-07   -0.42683E-09  3328   0.820E-05    0.592E-05
DAV:  12    -0.137295272900E+04   -0.54148E-07   -0.22993E-09  3136   0.673E-05    0.354E-05
DAV:  13    -0.137295272906E+04   -0.58411E-07   -0.31728E-09  3168   0.715E-05    0.352E-05
DAV:  14    -0.137295272907E+04   -0.17724E-07   -0.11688E-09  3136   0.567E-05    0.274E-05
DAV:  15    -0.137295272909E+04   -0.17055E-07   -0.63636E-10  3072   0.454E-05    0.152E-05
DAV:  16    -0.137295272910E+04   -0.10681E-07    0.39218E-11  3072   0.353E-05    0.148E-05
DAV:  17    -0.137295272910E+04   -0.90222E-09    0.48838E-10  2944   0.211E-05
  25 F= -.13922502E+04 E0= -.13922502E+04  d E =-.108012E-02  mag=    -0.0000
       N       E                     dE             d eps       ncg     rms          rms(c)
DAV:   1    -0.137295211594E+04    0.61316E-03   -0.75610E-02  4960   0.182E-01    0.956E-02
DAV:   2    -0.137295209723E+04    0.18718E-04   -0.69549E-04  5248   0.174E-02    0.573E-02
DAV:   3    -0.137295207710E+04    0.20126E-04   -0.17622E-04  5280   0.873E-03    0.912E-03
DAV:   4    -0.137295207717E+04   -0.68030E-07   -0.23809E-05  4864   0.260E-03    0.559E-03
DAV:   5    -0.137295207677E+04    0.39712E-06   -0.49356E-06  4800   0.142E-03    0.167E-03
DAV:   6    -0.137295207694E+04   -0.17408E-06   -0.45458E-07  4832   0.545E-04    0.937E-04
DAV:   7    -0.137295207711E+04   -0.16883E-06   -0.11661E-07  4320   0.282E-04    0.322E-04
DAV:   8    -0.137295207729E+04   -0.17195E-06   -0.25577E-08  3808   0.121E-04    0.213E-04
DAV:   9    -0.137295207751E+04   -0.22001E-06   -0.11200E-08  3680   0.104E-04    0.116E-04
DAV:  10    -0.137295207770E+04   -0.19760E-06   -0.10531E-08  3648   0.110E-04    0.742E-05
DAV:  11    -0.137295207784E+04   -0.13612E-06   -0.74786E-09  3584   0.100E-04    0.657E-05
DAV:  12    -0.137295207795E+04   -0.10761E-06   -0.58182E-09  3424   0.103E-04    0.333E-05
DAV:  13    -0.137295207800E+04   -0.55894E-07   -0.38416E-09  3232   0.951E-05    0.267E-05
DAV:  14    -0.137295207804E+04   -0.35230E-07   -0.19201E-09  3136   0.641E-05    0.193E-05
DAV:  15    -0.137295207806E+04   -0.22250E-07   -0.65390E-10  3136   0.373E-05    0.113E-05
DAV:  16    -0.137295207807E+04   -0.10594E-07    0.15932E-10  3072   0.243E-05    0.840E-06
DAV:  17    -0.137295207808E+04   -0.85274E-08    0.40022E-10  3072   0.172E-05
  26 F= -.13922499E+04 E0= -.13922499E+04  d E =0.289413E-03  mag=    -0.0000
       N       E                     dE             d eps       ncg     rms          rms(c)
DAV:   1    -0.137295236808E+04   -0.29001E-03   -0.79757E-02  5056   0.180E-01    0.119E-01
DAV:   2    -0.137295224365E+04    0.12442E-03   -0.11104E-03  5376   0.232E-02    0.691E-02
DAV:   3    -0.137295221332E+04    0.30330E-04   -0.68623E-04  5472   0.161E-02    0.250E-02
DAV:   4    -0.137295220004E+04    0.13286E-04   -0.76475E-05  5056   0.542E-03    0.156E-02
DAV:   5    -0.137295219856E+04    0.14809E-05   -0.23820E-05  5472   0.297E-03    0.319E-03
DAV:   6    -0.137295219844E+04    0.11700E-06   -0.18487E-06  5056   0.107E-03    0.110E-03
DAV:   7    -0.137295219853E+04   -0.84910E-07   -0.28859E-07  5056   0.387E-04    0.862E-04
DAV:   8    -0.137295219860E+04   -0.70548E-07   -0.48441E-08  4160   0.252E-04    0.299E-04
DAV:   9    -0.137295219865E+04   -0.52532E-07   -0.21604E-08  4000   0.171E-04    0.166E-04
DAV:  10    -0.137295219871E+04   -0.56287E-07   -0.71102E-09  3296   0.128E-04    0.111E-04
DAV:  11    -0.137295219874E+04   -0.38548E-07   -0.27439E-09  3136   0.930E-05    0.882E-05
DAV:  12    -0.137295219879E+04   -0.49055E-07   -0.48668E-09  3264   0.122E-04    0.798E-05
DAV:  13    -0.137295219882E+04   -0.23254E-07   -0.26155E-09  3136   0.843E-05    0.536E-05
DAV:  14    -0.137295219883E+04   -0.15993E-07   -0.19449E-09  3136   0.722E-05    0.508E-05
DAV:  15    -0.137295219885E+04   -0.12980E-07   -0.99718E-10  3136   0.641E-05    0.347E-05
DAV:  16    -0.137295219885E+04   -0.63883E-08   -0.20355E-10  3072   0.439E-05
  27 F= -.13922500E+04 E0= -.13922500E+04  d E =-.816037E-04  mag=    -0.0000
       N       E                     dE             d eps       ncg     rms          rms(c)
DAV:   1    -0.137295245412E+04   -0.25528E-03   -0.79556E-02  5120   0.182E-01    0.118E-01
DAV:   2    -0.137295234312E+04    0.11100E-03   -0.11067E-03  5248   0.224E-02    0.698E-02
DAV:   3    -0.137295231433E+04    0.28791E-04   -0.73300E-04  5216   0.166E-02    0.264E-02
DAV:   4    -0.137295229881E+04    0.15521E-04   -0.83320E-05  5024   0.563E-03    0.167E-02
DAV:   5    -0.137295229650E+04    0.23094E-05   -0.26647E-05  5152   0.299E-03    0.359E-03
DAV:   6    -0.137295229633E+04    0.17349E-06   -0.23493E-06  5008   0.109E-03    0.107E-03
DAV:   7    -0.137295229647E+04   -0.14433E-06   -0.32852E-07  5024   0.396E-04    0.916E-04
DAV:   8    -0.137295229671E+04   -0.24225E-06   -0.66062E-08  4256   0.240E-04    0.312E-04
DAV:   9    -0.137295229688E+04   -0.16765E-06   -0.26861E-08  3808   0.163E-04    0.216E-04
DAV:  10    -0.137295229712E+04   -0.24217E-06   -0.14851E-08  3840   0.127E-04    0.145E-04
DAV:  11    -0.137295229724E+04   -0.11915E-06   -0.48534E-09  3328   0.102E-04    0.111E-04
DAV:  12    -0.137295229741E+04   -0.16765E-06   -0.12696E-08  3776   0.122E-04    0.102E-04
DAV:  13    -0.137295229747E+04   -0.58106E-07   -0.34216E-09  3232   0.102E-04    0.696E-05
DAV:  14    -0.137295229753E+04   -0.63679E-07   -0.50798E-09  3104   0.106E-04    0.810E-05
DAV:  15    -0.137295229759E+04   -0.55938E-07   -0.31531E-09  3104   0.819E-05    0.673E-05
DAV:  16    -0.137295229760E+04   -0.13621E-07   -0.74535E-10  3072   0.480E-05    0.379E-05
DAV:  17    -0.137295229762E+04   -0.20358E-07   -0.13106E-09  3072   0.608E-05    0.436E-05
DAV:  18    -0.137295229764E+04   -0.13402E-07   -0.18761E-10  3072   0.366E-05    0.558E-05
DAV:  19    -0.137295229764E+04   -0.14988E-08    0.64663E-10  2944   0.181E-05
  28 F= -.13922498E+04 E0= -.13922498E+04  d E =0.237415E-03  mag=     0.0000
       N       E                     dE             d eps       ncg     rms          rms(c)
DAV:   1    -0.137295210601E+04    0.19163E-03   -0.77245E-02  4992   0.180E-01    0.104E-01
DAV:   2    -0.137295209065E+04    0.15359E-04   -0.12138E-03  5376   0.227E-02    0.662E-02
DAV:   3    -0.137295205407E+04    0.36581E-04   -0.57748E-04  5344   0.166E-02    0.205E-02
DAV:   4    -0.137295204791E+04    0.61571E-05   -0.65337E-05  5184   0.539E-03    0.142E-02
DAV:   5    -0.137295204601E+04    0.18971E-05   -0.22242E-05  4800   0.308E-03    0.370E-03
DAV:   6    -0.137295204624E+04   -0.22196E-06   -0.20913E-06  4864   0.115E-03    0.138E-03
DAV:   7    -0.137295204652E+04   -0.28126E-06   -0.47196E-07  4960   0.506E-04    0.673E-04
DAV:   8    -0.137295204674E+04   -0.21912E-06   -0.59780E-08  4032   0.216E-04    0.348E-04
DAV:   9    -0.137295204693E+04   -0.19291E-06   -0.17588E-08  3616   0.121E-04    0.152E-04
DAV:  10    -0.137295204710E+04   -0.16851E-06   -0.89431E-09  3488   0.101E-04    0.957E-05
DAV:  11    -0.137295204723E+04   -0.13063E-06   -0.40429E-09  3264   0.794E-05    0.782E-05
DAV:  12    -0.137295204735E+04   -0.11938E-06   -0.65947E-09  3488   0.913E-05    0.562E-05
DAV:  13    -0.137295204740E+04   -0.50393E-07   -0.28268E-09  3168   0.935E-05    0.374E-05
DAV:  14    -0.137295204745E+04   -0.53740E-07   -0.35197E-09  3200   0.934E-05    0.527E-05
DAV:  15    -0.137295204748E+04   -0.24098E-07   -0.12505E-09  3072   0.668E-05    0.406E-05
DAV:  16    -0.137295204749E+04   -0.13373E-07   -0.38072E-10  3072   0.422E-05    0.128E-05
DAV:  17    -0.137295204750E+04   -0.10696E-07    0.30667E-10  2944   0.259E-05    0.154E-05
DAV:  18    -0.137295204751E+04   -0.97643E-08    0.53002E-10  3072   0.174E-05
  29 F= -.13922500E+04 E0= -.13922500E+04  d E =-.205584E-03  mag=    -0.0000
       N       E                     dE             d eps       ncg     rms          rms(c)
DAV:   1    -0.137295235075E+04   -0.30325E-03   -0.81180E-02  4512   0.173E-01    0.122E-01
DAV:   2    -0.137295223788E+04    0.11287E-03   -0.13178E-03  4960   0.231E-02    0.698E-02
DAV:   3    -0.137295220302E+04    0.34858E-04   -0.60328E-04  4832   0.148E-02    0.223E-02
DAV:   4    -0.137295219278E+04    0.10238E-04   -0.69198E-05  4768   0.514E-03    0.133E-02
DAV:   5    -0.137295219228E+04    0.49650E-06   -0.17510E-05  5504   0.271E-03    0.242E-03
DAV:   6    -0.137295219242E+04   -0.13286E-06   -0.10359E-06  4544   0.717E-04    0.116E-03
DAV:   7    -0.137295219260E+04   -0.18458E-06   -0.27245E-07  4896   0.368E-04    0.629E-04
DAV:   8    -0.137295219282E+04   -0.22238E-06   -0.35956E-08  3712   0.157E-04    0.302E-04
DAV:   9    -0.137295219306E+04   -0.23798E-06   -0.17577E-08  3744   0.110E-04    0.151E-04
DAV:  10    -0.137295219327E+04   -0.21367E-06   -0.61001E-09  3520   0.802E-05    0.108E-04
DAV:  11    -0.137295219351E+04   -0.23113E-06   -0.76357E-09  3584   0.869E-05    0.615E-05
DAV:  12    -0.137295219365E+04   -0.14152E-06   -0.56407E-09  3392   0.107E-04    0.450E-05
DAV:  13    -0.137295219375E+04   -0.10179E-06   -0.42551E-09  3328   0.913E-05    0.327E-05
DAV:  14    -0.137295219380E+04   -0.55486E-07   -0.17144E-09  3072   0.583E-05    0.185E-05
DAV:  15    -0.137295219384E+04   -0.32494E-07   -0.10531E-09  3072   0.516E-05    0.163E-05
DAV:  16    -0.137295219384E+04   -0.77125E-08    0.85520E-11  3072   0.344E-05
  30 F= -.13922500E+04 E0= -.13922500E+04  d E =-.324019E-04  mag=    -0.0000
       N       E                     dE             d eps       ncg     rms          rms(c)
DAV:   1    -0.137295241666E+04   -0.22282E-03   -0.80934E-02  4672   0.171E-01    0.122E-01
DAV:   2    -0.137295230221E+04    0.11446E-03   -0.13247E-03  4736   0.230E-02    0.704E-02
DAV:   3    -0.137295226991E+04    0.32299E-04   -0.69356E-04  5312   0.156E-02    0.243E-02
DAV:   4    -0.137295225714E+04    0.12770E-04   -0.77883E-05  4992   0.539E-03    0.146E-02
DAV:   5    -0.137295225586E+04    0.12762E-05   -0.22610E-05  5584   0.294E-03    0.261E-03
DAV:   6    -0.137295225584E+04    0.16022E-07   -0.13948E-06  4736   0.833E-04    0.123E-03
DAV:   7    -0.137295225596E+04   -0.11310E-06   -0.30559E-07  4896   0.378E-04    0.851E-04
DAV:   8    -0.137295225610E+04   -0.14564E-06   -0.54024E-08  4000   0.193E-04    0.285E-04
DAV:   9    -0.137295225624E+04   -0.13261E-06   -0.23697E-08  3776   0.124E-04    0.196E-04
DAV:  10    -0.137295225638E+04   -0.14498E-06   -0.60607E-09  3488   0.871E-05    0.984E-05
DAV:  11    -0.137295225651E+04   -0.12934E-06   -0.64076E-09  3552   0.793E-05    0.693E-05
DAV:  12    -0.137295225660E+04   -0.88461E-07   -0.33592E-09  3136   0.738E-05    0.465E-05
DAV:  13    -0.137295225670E+04   -0.10045E-06   -0.62704E-09  3520   0.696E-05    0.380E-05
DAV:  14    -0.137295225673E+04   -0.31447E-07   -0.95219E-10  3136   0.446E-05    0.256E-05
DAV:  15    -0.137295225679E+04   -0.55763E-07   -0.18576E-09  3072   0.448E-05    0.259E-05
DAV:  16    -0.137295225680E+04   -0.17666E-07   -0.40641E-10  3136   0.383E-05    0.163E-05
DAV:  17    -0.137295225682E+04   -0.11816E-07   -0.31434E-11  3072   0.270E-05    0.138E-05
DAV:  18    -0.137295225683E+04   -0.13461E-07    0.39810E-10  3072   0.212E-05    0.119E-05
DAV:  19    -0.137295225684E+04   -0.62573E-08    0.55385E-10  2944   0.149E-05
  31 F= -.13922500E+04 E0= -.13922500E+04  d E =0.352870E-04  mag=    -0.0000
       N       E                     dE             d eps       ncg     rms          rms(c)
DAV:   1    -0.137295190990E+04    0.34693E-03   -0.78528E-02  5120   0.171E-01    0.115E-01
DAV:   2    -0.137295181712E+04    0.92778E-04   -0.12307E-03  5536   0.228E-02    0.675E-02
DAV:   3    -0.137295178779E+04    0.29329E-04   -0.42005E-04  5472   0.129E-02    0.215E-02
DAV:   4    -0.137295178297E+04    0.48183E-05   -0.57395E-05  5760   0.478E-03    0.116E-02
DAV:   5    -0.137295178339E+04   -0.42250E-06   -0.78568E-06  5728   0.195E-03    0.310E-03
DAV:   6    -0.137295178341E+04   -0.19107E-07   -0.13538E-06  4800   0.787E-04    0.111E-03
DAV:   7    -0.137295178366E+04   -0.24178E-06   -0.21794E-07  4672   0.310E-04    0.526E-04
DAV:   8    -0.137295178387E+04   -0.21857E-06   -0.25759E-08  3872   0.129E-04    0.274E-04
DAV:   9    -0.137295178416E+04   -0.28347E-06   -0.15747E-08  3776   0.106E-04    0.121E-04
DAV:  10    -0.137295178440E+04   -0.24251E-06   -0.11917E-08  3744   0.977E-05    0.105E-04
DAV:  11    -0.137295178461E+04   -0.20635E-06   -0.75233E-09  3456   0.880E-05    0.499E-05
DAV:  12    -0.137295178472E+04   -0.11543E-06   -0.48222E-09  3232   0.779E-05    0.476E-05
DAV:  13    -0.137295178480E+04   -0.77285E-07   -0.28355E-09  3072   0.648E-05    0.311E-05
DAV:  14    -0.137295178486E+04   -0.64538E-07   -0.26910E-09  3104   0.539E-05    0.155E-05
DAV:  15    -0.137295178489E+04   -0.22817E-07   -0.66518E-10  3136   0.370E-05    0.156E-05
DAV:  16    -0.137295178491E+04   -0.19747E-07   -0.18283E-10  3072   0.280E-05    0.761E-06
DAV:  17    -0.137295178491E+04   -0.76980E-08    0.33915E-10  3136   0.201E-05
  32 F= -.13922497E+04 E0= -.13922497E+04  d E =0.326180E-03  mag=     0.0000
       N       E                     dE             d eps       ncg     rms          rms(c)
DAV:   1    -0.137295242821E+04   -0.64330E-03   -0.81708E-02  5120   0.140E-01    0.135E-01
DAV:   2    -0.137295222636E+04    0.20184E-03   -0.14467E-03  5568   0.235E-02    0.748E-02
DAV:   3    -0.137295218485E+04    0.41511E-04   -0.40746E-04  5856   0.118E-02    0.263E-02
DAV:   4    -0.137295218055E+04    0.43046E-05   -0.47176E-05  5952   0.457E-03    0.119E-02
DAV:   5    -0.137295218143E+04   -0.88099E-06   -0.65244E-06  5632   0.181E-03    0.390E-03
DAV:   6    -0.137295218133E+04    0.97600E-07   -0.18714E-06  5408   0.923E-04    0.163E-03
DAV:   7    -0.137295218155E+04   -0.21815E-06   -0.33882E-07  4608   0.390E-04    0.659E-04
DAV:   8    -0.137295218179E+04   -0.24690E-06   -0.62223E-08  4160   0.161E-04    0.327E-04
DAV:   9    -0.137295218201E+04   -0.21423E-06   -0.18031E-08  3744   0.111E-04    0.176E-04
DAV:  10    -0.137295218224E+04   -0.23039E-06   -0.10455E-08  3712   0.814E-05    0.142E-04
DAV:  11    -0.137295218246E+04   -0.21938E-06   -0.66827E-09  3584   0.593E-05    0.621E-05
DAV:  12    -0.137295218259E+04   -0.13222E-06   -0.33025E-09  3200   0.456E-05    0.582E-05
DAV:  13    -0.137295218271E+04   -0.11455E-06   -0.36006E-09  3296   0.452E-05    0.452E-05
DAV:  14    -0.137295218276E+04   -0.53857E-07   -0.15053E-09  3072   0.383E-05    0.261E-05
DAV:  15    -0.137295218279E+04   -0.27576E-07   -0.10142E-09  3072   0.339E-05    0.138E-05
DAV:  16    -0.137295218280E+04   -0.13228E-07   -0.17605E-10  3072   0.284E-05    0.175E-05
DAV:  17    -0.137295218280E+04   -0.26776E-08    0.33249E-10  3104   0.206E-05
  33 F= -.13922499E+04 E0= -.13922499E+04  d E =-.253876E-03  mag=     0.0000
       N       E                     dE             d eps       ncg     rms          rms(c)
DAV:   1    -0.137295265361E+04   -0.47081E-03   -0.75702E-02  5152   0.134E-01    0.109E-01
DAV:   2    -0.137295255916E+04    0.94452E-04   -0.81412E-04  5344   0.168E-02    0.615E-02
DAV:   3    -0.137295253842E+04    0.20743E-04   -0.24585E-04  5728   0.925E-03    0.179E-02
DAV:   4    -0.137295253673E+04    0.16836E-05   -0.25525E-05  5760   0.332E-03    0.883E-03
DAV:   5    -0.137295253721E+04   -0.47931E-06   -0.39915E-06  5504   0.140E-03    0.263E-03
DAV:   6    -0.137295253731E+04   -0.92579E-07   -0.92104E-07  5056   0.607E-04    0.105E-03
DAV:   7    -0.137295253746E+04   -0.15448E-06   -0.13140E-07  4288   0.260E-04    0.452E-04
DAV:   8    -0.137295253763E+04   -0.16927E-06   -0.30983E-08  3872   0.133E-04    0.246E-04
DAV:   9    -0.137295253778E+04   -0.14863E-06   -0.96562E-09  3584   0.924E-05    0.118E-04
DAV:  10    -0.137295253791E+04   -0.13629E-06   -0.60871E-09  3488   0.708E-05    0.945E-05
DAV:  11    -0.137295253804E+04   -0.12860E-06   -0.43961E-09  3296   0.649E-05    0.459E-05
DAV:  12    -0.137295253813E+04   -0.88898E-07   -0.33670E-09  3232   0.609E-05    0.403E-05
DAV:  13    -0.137295253819E+04   -0.60943E-07   -0.27240E-09  3072   0.615E-05    0.288E-05
DAV:  14    -0.137295253822E+04   -0.28958E-07   -0.16315E-09  3136   0.514E-05    0.156E-05
DAV:  15    -0.137295253824E+04   -0.17797E-07   -0.59265E-10  3136   0.332E-05    0.109E-05
DAV:  16    -0.137295253825E+04   -0.11045E-07   -0.10840E-10  3072   0.274E-05    0.102E-05
DAV:  17    -0.137295253825E+04   -0.34634E-08    0.42962E-10  2944   0.186E-05
  34 F= -.13922502E+04 E0= -.13922502E+04  d E =-.283322E-03  mag=    -0.0000
       N       E                     dE             d eps       ncg     rms          rms(c)
DAV:   1    -0.137295158070E+04    0.95756E-03   -0.75395E-02  5056   0.144E-01    0.116E-01
DAV:   2    -0.137295146385E+04    0.11684E-03   -0.12015E-03  5504   0.205E-02    0.653E-02
DAV:   3    -0.137295144215E+04    0.21701E-04   -0.20819E-04  5728   0.827E-03    0.234E-02
DAV:   4    -0.137295144009E+04    0.20630E-05   -0.29803E-05  6016   0.363E-03    0.783E-03
DAV:   5    -0.137295144061E+04   -0.52522E-06   -0.43722E-06  5568   0.150E-03    0.250E-03
DAV:   6    -0.137295144079E+04   -0.17602E-06   -0.82715E-07  5152   0.633E-04    0.146E-03
DAV:   7    -0.137295144107E+04   -0.27833E-06   -0.15248E-07  4832   0.263E-04    0.608E-04
DAV:   8    -0.137295144148E+04   -0.40788E-06   -0.41953E-08  4064   0.145E-04    0.214E-04
DAV:   9    -0.137295144177E+04   -0.28878E-06   -0.12556E-08  3712   0.979E-05    0.159E-04
DAV:  10    -0.137295144213E+04   -0.36070E-06   -0.14904E-08  3840   0.902E-05    0.128E-04
DAV:  11    -0.137295144246E+04   -0.33756E-06   -0.14867E-08  4000   0.828E-05    0.580E-05
DAV:  12    -0.137295144261E+04   -0.14856E-06   -0.35047E-09  3264   0.689E-05    0.488E-05
DAV:  13    -0.137295144274E+04   -0.12683E-06   -0.40958E-09  3392   0.794E-05    0.361E-05
DAV:  14    -0.137295144281E+04   -0.74608E-07   -0.19782E-09  3200   0.692E-05    0.209E-05
DAV:  15    -0.137295144286E+04   -0.43045E-07   -0.57631E-10  3072   0.425E-05    0.105E-05
DAV:  16    -0.137295144289E+04   -0.28886E-07   -0.14709E-10  3072   0.339E-05    0.110E-05
DAV:  17    -0.137295144289E+04   -0.93278E-08    0.42650E-10  3136   0.213E-05
  35 F= -.13922493E+04 E0= -.13922493E+04  d E =0.885498E-03  mag=     0.0000
       N       E                     dE             d eps       ncg     rms          rms(c)
DAV:   1    -0.137295217823E+04   -0.73534E-03   -0.72053E-02  5056   0.132E-01    0.880E-02
DAV:   2    -0.137295214145E+04    0.36785E-04   -0.46125E-04  5568   0.121E-02    0.508E-02
DAV:   3    -0.137295213928E+04    0.21618E-05   -0.94130E-05  5728   0.553E-03    0.128E-02
DAV:   4    -0.137295213964E+04   -0.35357E-06   -0.10072E-05  5920   0.211E-03    0.464E-03
DAV:   5    -0.137295214013E+04   -0.49616E-06   -0.14379E-06  5376   0.885E-04    0.151E-03
DAV:   6    -0.137295214056E+04   -0.43027E-06   -0.23778E-07  4480   0.335E-04    0.718E-04
DAV:   7    -0.137295214102E+04   -0.45843E-06   -0.57167E-08  4224   0.180E-04    0.332E-04
DAV:   8    -0.137295214146E+04   -0.43851E-06   -0.23391E-08  3904   0.122E-04    0.180E-04
DAV:   9    -0.137295214183E+04   -0.37183E-06   -0.10972E-08  3648   0.819E-05    0.112E-04
DAV:  10    -0.137295214223E+04   -0.39542E-06   -0.14647E-08  3776   0.889E-05    0.766E-05
DAV:  11    -0.137295214249E+04   -0.26519E-06   -0.98843E-09  3664   0.978E-05    0.444E-05
DAV:  12    -0.137295214261E+04   -0.11566E-06   -0.36129E-09  3264   0.890E-05    0.391E-05
DAV:  13    -0.137295214270E+04   -0.94529E-07   -0.28155E-09  3200   0.689E-05    0.223E-05
DAV:  14    -0.137295214276E+04   -0.58149E-07   -0.17023E-09  3072   0.542E-05    0.130E-05
DAV:  15    -0.137295214279E+04   -0.28303E-07   -0.68691E-10  3072   0.406E-05    0.109E-05
DAV:  16    -0.137295214281E+04   -0.17259E-07   -0.15318E-10  3072   0.284E-05    0.733E-06
DAV:  17    -0.137295214281E+04   -0.51223E-08    0.37855E-10  3072   0.174E-05
  36 F= -.13922500E+04 E0= -.13922500E+04  d E =-.703672E-03  mag=     0.0000
       N       E                     dE             d eps       ncg     rms          rms(c)
DAV:   1    -0.137295243347E+04   -0.29066E-03   -0.70445E-02  4992   0.133E-01    0.778E-02
DAV:   2    -0.137295243990E+04   -0.64274E-05   -0.34342E-04  5408   0.101E-02    0.467E-02
DAV:   3    -0.137295244357E+04   -0.36702E-05   -0.74553E-05  5664   0.515E-03    0.574E-03
DAV:   4    -0.137295244323E+04    0.33257E-06   -0.72111E-06  4960   0.174E-03    0.379E-03
DAV:   5    -0.137295244341E+04   -0.17091E-06   -0.26060E-06  5152   0.105E-03    0.123E-03
DAV:   6    -0.137295244378E+04   -0.37222E-06   -0.28801E-07  4464   0.389E-04    0.689E-04
DAV:   7    -0.137295244426E+04   -0.48534E-06   -0.76557E-08  4288   0.218E-04    0.321E-04
DAV:   8    -0.137295244465E+04   -0.39038E-06   -0.21182E-08  3856   0.130E-04    0.205E-04
DAV:   9    -0.137295244514E+04   -0.48244E-06   -0.19375E-08  4000   0.108E-04    0.127E-04
DAV:  10    -0.137295244550E+04   -0.36490E-06   -0.12322E-08  3776   0.981E-05    0.844E-05
DAV:  11    -0.137295244574E+04   -0.23837E-06   -0.77318E-09  3616   0.870E-05    0.550E-05
DAV:  12    -0.137295244591E+04   -0.16660E-06   -0.49059E-09  3296   0.864E-05    0.368E-05
DAV:  13    -0.137295244602E+04   -0.11544E-06   -0.52593E-09  3328   0.836E-05    0.322E-05
DAV:  14    -0.137295244606E+04   -0.36831E-07   -0.19105E-09  3120   0.691E-05    0.199E-05
DAV:  15    -0.137295244608E+04   -0.23792E-07   -0.87839E-10  3072   0.444E-05    0.164E-05
DAV:  16    -0.137295244609E+04   -0.76398E-08    0.16192E-10  3072   0.276E-05
  37 F= -.13922501E+04 E0= -.13922501E+04  d E =-.126741E-03  mag=     0.0000
       N       E                     dE             d eps       ncg     rms          rms(c)
DAV:   1    -0.137295232428E+04    0.12180E-03   -0.71242E-02  5056   0.153E-01    0.850E-02
DAV:   2    -0.137295233272E+04   -0.84443E-05   -0.62755E-04  5312   0.147E-02    0.518E-02
DAV:   3    -0.137295233187E+04    0.85332E-06   -0.18509E-04  5888   0.812E-03    0.126E-02
DAV:   4    -0.137295232872E+04    0.31499E-05   -0.24880E-05  5440   0.276E-03    0.834E-03
DAV:   5    -0.137295232822E+04    0.50018E-06   -0.97927E-06  5312   0.172E-03    0.175E-03
DAV:   6    -0.137295232844E+04   -0.22211E-06   -0.74541E-07  4608   0.591E-04    0.852E-04
DAV:   7    -0.137295232868E+04   -0.24115E-06   -0.83779E-08  4256   0.221E-04    0.464E-04
DAV:   8    -0.137295232900E+04   -0.32113E-06   -0.33032E-08  4160   0.178E-04    0.185E-04
DAV:   9    -0.137295232922E+04   -0.21586E-06   -0.10283E-08  3616   0.123E-04    0.117E-04
DAV:  10    -0.137295232948E+04   -0.25566E-06   -0.12316E-08  3776   0.115E-04    0.774E-05
DAV:  11    -0.137295232959E+04   -0.11522E-06   -0.38739E-09  3168   0.956E-05    0.506E-05
DAV:  12    -0.137295232972E+04   -0.13199E-06   -0.65702E-09  3456   0.995E-05    0.429E-05
DAV:  13    -0.137295232976E+04   -0.38533E-07   -0.20858E-09  3072   0.804E-05    0.350E-05
DAV:  14    -0.137295232981E+04   -0.49200E-07   -0.14749E-09  3072   0.646E-05    0.279E-05
DAV:  15    -0.137295232988E+04   -0.69049E-07   -0.18415E-09  3072   0.557E-05    0.346E-05
DAV:  16    -0.137295232989E+04   -0.82946E-08   -0.64417E-11  3072   0.321E-05
  38 F= -.13922501E+04 E0= -.13922501E+04  d E =-.468722E-05  mag=     0.0000
       N       E                     dE             d eps       ncg     rms          rms(c)
DAV:   1    -0.137295194146E+04    0.38842E-03   -0.71380E-02  5024   0.146E-01    0.777E-02
DAV:   2    -0.137295194979E+04   -0.83362E-05   -0.39015E-04  5440   0.116E-02    0.462E-02
DAV:   3    -0.137295194877E+04    0.10198E-05   -0.84631E-05  5856   0.542E-03    0.727E-03
DAV:   4    -0.137295194845E+04    0.32214E-06   -0.75430E-06  5120   0.161E-03    0.410E-03
DAV:   5    -0.137295194846E+04   -0.12573E-07   -0.26996E-06  5248   0.984E-04    0.116E-03
DAV:   6    -0.137295194854E+04   -0.77329E-07   -0.23662E-07  4448   0.382E-04    0.652E-04
DAV:   7    -0.137295194868E+04   -0.13891E-06   -0.52789E-08  3904   0.192E-04    0.221E-04
DAV:   8    -0.137295194878E+04   -0.10437E-06   -0.11776E-08  3568   0.101E-04    0.157E-04
DAV:   9    -0.137295194893E+04   -0.14096E-06   -0.90853E-09  3504   0.121E-04    0.791E-05
DAV:  10    -0.137295194901E+04   -0.79803E-07   -0.45469E-09  3200   0.960E-05    0.590E-05
DAV:  11    -0.137295194907E+04   -0.60347E-07   -0.34187E-09  3136   0.884E-05    0.380E-05
DAV:  12    -0.137295194911E+04   -0.44311E-07   -0.27741E-09  3136   0.794E-05    0.288E-05
DAV:  13    -0.137295194914E+04   -0.33309E-07   -0.12923E-09  3072   0.527E-05    0.169E-05
DAV:  14    -0.137295194918E+04   -0.32902E-07   -0.83001E-10  3072   0.393E-05    0.170E-05
DAV:  15    -0.137295194919E+04   -0.10550E-07    0.24751E-11  3072   0.257E-05    0.125E-05
DAV:  16    -0.137295194920E+04   -0.84983E-08    0.40486E-10  3072   0.194E-05
  39 F= -.13922497E+04 E0= -.13922497E+04  d E =0.434866E-03  mag=     0.0000
       N       E                     dE             d eps       ncg     rms          rms(c)
DAV:   1    -0.137295240563E+04   -0.45644E-03   -0.81774E-02  5168   0.158E-01    0.134E-01
DAV:   2    -0.137295221783E+04    0.18780E-03   -0.13836E-03  5408   0.231E-02    0.756E-02
DAV:   3    -0.137295217429E+04    0.43536E-04   -0.75111E-04  5664   0.143E-02    0.254E-02
DAV:   4    -0.137295216194E+04    0.12353E-04   -0.79122E-05  5504   0.479E-03    0.157E-02
DAV:   5    -0.137295216151E+04    0.43085E-06   -0.22798E-05  5984   0.243E-03    0.275E-03
DAV:   6    -0.137295216143E+04    0.75263E-07   -0.13981E-06  4784   0.817E-04    0.119E-03
DAV:   7    -0.137295216151E+04   -0.71479E-07   -0.32991E-07  4992   0.362E-04    0.651E-04
DAV:   8    -0.137295216157E+04   -0.61758E-07   -0.23972E-08  3552   0.134E-04    0.304E-04
DAV:   9    -0.137295216162E+04   -0.56418E-07   -0.13235E-08  3584   0.953E-05    0.123E-04
DAV:  10    -0.137295216166E+04   -0.32829E-07   -0.15070E-09  3168   0.620E-05    0.776E-05
DAV:  11    -0.137295216170E+04   -0.44616E-07   -0.17656E-09  3168   0.498E-05    0.583E-05
DAV:  12    -0.137295216172E+04   -0.22759E-07   -0.28860E-10  3072   0.422E-05    0.330E-05
DAV:  13    -0.137295216175E+04   -0.30195E-07   -0.14730E-09  3136   0.493E-05    0.450E-05
DAV:  14    -0.137295216176E+04   -0.91823E-08    0.53192E-11  3072   0.354E-05
  40 F= -.13922496E+04 E0= -.13922496E+04  d E =0.109665E-03  mag=     0.0000
       N       E                     dE             d eps       ncg     rms          rms(c)
DAV:   1    -0.137295250702E+04   -0.34526E-03   -0.73198E-02  5024   0.152E-01    0.928E-02
DAV:   2    -0.137295251346E+04   -0.64464E-05   -0.74485E-04  5856   0.158E-02    0.591E-02
DAV:   3    -0.137295250368E+04    0.97840E-05   -0.16461E-04  5600   0.797E-03    0.106E-02
DAV:   4    -0.137295250182E+04    0.18568E-05   -0.20010E-05  5600   0.286E-03    0.649E-03
DAV:   5    -0.137295250194E+04   -0.11639E-06   -0.93025E-06  4960   0.167E-03    0.185E-03
DAV:   6    -0.137295250212E+04   -0.18449E-06   -0.91993E-07  4784   0.696E-04    0.874E-04
DAV:   7    -0.137295250246E+04   -0.33897E-06   -0.11154E-07  4176   0.264E-04    0.386E-04
DAV:   8    -0.137295250281E+04   -0.34517E-06   -0.33025E-08  3856   0.143E-04    0.171E-04
DAV:   9    -0.137295250307E+04   -0.26060E-06   -0.10622E-08  3552   0.113E-04    0.101E-04
DAV:  10    -0.137295250331E+04   -0.24081E-06   -0.10771E-08  3600   0.115E-04    0.632E-05
DAV:  11    -0.137295250347E+04   -0.16321E-06   -0.10092E-08  3664   0.146E-04    0.437E-05
DAV:  12    -0.137295250357E+04   -0.99870E-07   -0.68642E-09  3360   0.131E-04    0.355E-05
DAV:  13    -0.137295250363E+04   -0.57975E-07   -0.22669E-09  3200   0.643E-05    0.209E-05
DAV:  14    -0.137295250368E+04   -0.45533E-07   -0.14538E-09  3072   0.483E-05    0.184E-05
DAV:  15    -0.137295250369E+04   -0.86729E-08   -0.17659E-10  3136   0.343E-05
  41 F= -.13922503E+04 E0= -.13922503E+04  d E =-.718085E-03  mag=    -0.0000
       N       E                     dE             d eps       ncg     rms          rms(c)
DAV:   1    -0.137295237910E+04    0.12457E-03   -0.75953E-02  4800   0.144E-01    0.105E-01
DAV:   2    -0.137295229090E+04    0.88201E-04   -0.71652E-04  5184   0.155E-02    0.592E-02
DAV:   3    -0.137295227838E+04    0.12523E-04   -0.36056E-04  5376   0.940E-03    0.181E-02
DAV:   4    -0.137295227223E+04    0.61474E-05   -0.33740E-05  5088   0.325E-03    0.115E-02
DAV:   5    -0.137295227218E+04    0.46930E-07   -0.12794E-05  5120   0.201E-03    0.207E-03
DAV:   6    -0.137295227256E+04   -0.37864E-06   -0.89164E-07  4960   0.678E-04    0.104E-03
DAV:   7    -0.137295227307E+04   -0.50903E-06   -0.20413E-07  4704   0.296E-04    0.711E-04
DAV:   8    -0.137295227353E+04   -0.45498E-06   -0.36378E-08  3744   0.151E-04    0.278E-04
DAV:   9    -0.137295227395E+04   -0.41800E-06   -0.21347E-08  3776   0.110E-04    0.174E-04
DAV:  10    -0.137295227435E+04   -0.40028E-06   -0.13160E-08  3552   0.107E-04    0.116E-04
DAV:  11    -0.137295227463E+04   -0.28526E-06   -0.10552E-08  3520   0.108E-04    0.652E-05
DAV:  12    -0.137295227484E+04   -0.21112E-06   -0.10311E-08  3552   0.119E-04    0.609E-05
DAV:  13    -0.137295227493E+04   -0.91488E-07   -0.38713E-09  3232   0.954E-05    0.519E-05
DAV:  14    -0.137295227502E+04   -0.88941E-07   -0.29901E-09  3168   0.657E-05    0.218E-05
DAV:  15    -0.137295227508E+04   -0.57582E-07   -0.16388E-09  3136   0.542E-05    0.304E-05
DAV:  16    -0.137295227509E+04   -0.14799E-07   -0.13540E-10  3136   0.342E-05    0.223E-05
DAV:  17    -0.137295227511E+04   -0.16385E-07    0.27503E-10  3072   0.255E-05    0.117E-05
DAV:  18    -0.137295227513E+04   -0.14013E-07    0.40546E-10  3072   0.188E-05    0.135E-05
DAV:  19    -0.137295227513E+04   -0.23283E-08    0.69996E-10  3072   0.130E-05
  42 F= -.13922501E+04 E0= -.13922501E+04  d E =0.246726E-03  mag=    -0.0000
       N       E                     dE             d eps       ncg     rms          rms(c)
DAV:   1    -0.137295179439E+04    0.48074E-03   -0.70664E-02  4704   0.142E-01    0.742E-02
DAV:   2    -0.137295181210E+04   -0.17706E-04   -0.36783E-04  5440   0.102E-02    0.454E-02
DAV:   3    -0.137295181492E+04   -0.28200E-05   -0.80549E-05  5664   0.515E-03    0.655E-03
DAV:   4    -0.137295181458E+04    0.33267E-06   -0.93501E-06  4896   0.172E-03    0.464E-03
DAV:   5    -0.137295181499E+04   -0.40323E-06   -0.43755E-06  4832   0.120E-03    0.127E-03
DAV:   6    -0.137295181548E+04   -0.49376E-06   -0.44713E-07  4704   0.468E-04    0.734E-04
DAV:   7    -0.137295181616E+04   -0.68260E-06   -0.77695E-08  4032   0.207E-04    0.367E-04
DAV:   8    -0.137295181684E+04   -0.67439E-06   -0.44886E-08  4000   0.137E-04    0.241E-04
DAV:   9    -0.137295181757E+04   -0.73590E-06   -0.45803E-08  4208   0.175E-04    0.160E-04
DAV:  10    -0.137295181786E+04   -0.28928E-06   -0.12395E-08  3520   0.134E-04    0.130E-04
DAV:  11    -0.137295181809E+04   -0.22829E-06   -0.11195E-08  3712   0.128E-04    0.776E-05
DAV:  12    -0.137295181820E+04   -0.11041E-06   -0.47230E-09  3296   0.122E-04    0.504E-05
DAV:  13    -0.137295181832E+04   -0.11921E-06   -0.59535E-09  3392   0.110E-04    0.410E-05
DAV:  14    -0.137295181838E+04   -0.55719E-07   -0.26775E-09  3200   0.860E-05    0.355E-05
DAV:  15    -0.137295181840E+04   -0.24054E-07   -0.71087E-10  3072   0.480E-05    0.154E-05
DAV:  16    -0.137295181842E+04   -0.19936E-07   -0.39851E-10  3072   0.387E-05    0.239E-05
DAV:  17    -0.137295181843E+04   -0.65629E-08    0.25211E-10  3072   0.258E-05
  43 F= -.13922496E+04 E0= -.13922496E+04  d E =0.511227E-03  mag=     0.0000
       N       E                     dE             d eps       ncg     rms          rms(c)
DAV:   1    -0.137295187106E+04   -0.52636E-04   -0.81795E-02  5024   0.154E-01    0.129E-01
DAV:   2    -0.137295167038E+04    0.20067E-03   -0.15345E-03  5312   0.242E-02    0.721E-02
DAV:   3    -0.137295163963E+04    0.30751E-04   -0.11096E-03  5216   0.166E-02    0.316E-02
DAV:   4    -0.137295162226E+04    0.17369E-04   -0.94358E-05  4992   0.520E-03    0.221E-02
DAV:   5    -0.137295161964E+04    0.26191E-05   -0.31663E-05  5568   0.295E-03    0.490E-03
DAV:   6    -0.137295161916E+04    0.47896E-06   -0.60825E-06  4896   0.134E-03    0.171E-03
DAV:   7    -0.137295161933E+04   -0.16572E-06   -0.63023E-07  4736   0.503E-04    0.178E-03
DAV:   8    -0.137295161944E+04   -0.11367E-06   -0.64843E-08  3872   0.209E-04    0.781E-04
DAV:   9    -0.137295161953E+04   -0.90949E-07   -0.11505E-07  4000   0.192E-04    0.224E-04
DAV:  10    -0.137295161963E+04   -0.91546E-07   -0.11474E-08  3488   0.982E-05    0.140E-04
DAV:  11    -0.137295161972E+04   -0.97556E-07   -0.61301E-09  3488   0.726E-05    0.921E-05
DAV:  12    -0.137295161979E+04   -0.67768E-07   -0.43847E-09  3264   0.826E-05    0.396E-05
DAV:  13    -0.137295161984E+04   -0.50699E-07   -0.28585E-09  3232   0.782E-05    0.552E-05
DAV:  14    -0.137295161987E+04   -0.29686E-07   -0.15358E-09  3072   0.701E-05    0.373E-05
DAV:  15    -0.137295161990E+04   -0.32553E-07   -0.18201E-09  3136   0.583E-05    0.228E-05
DAV:  16    -0.137295161991E+04   -0.51223E-08   -0.60323E-11  3072   0.343E-05
  44 F= -.13922495E+04 E0= -.13922495E+04  d E =0.433742E-04  mag=    -0.0000
       N       E                     dE             d eps       ncg     rms          rms(c)
DAV:   1    -0.137295233574E+04   -0.71584E-03   -0.73261E-02  5056   0.131E-01    0.850E-02
DAV:   2    -0.137295233267E+04    0.30683E-05   -0.49741E-04  5248   0.112E-02    0.506E-02
DAV:   3    -0.137295232720E+04    0.54771E-05   -0.13913E-04  5600   0.617E-03    0.101E-02
[...]
DAV:   9    -0.137295064448E+04   -0.92265E-06   -0.32815E-08  4064   0.132E-04    0.196E-04
DAV:  10    -0.137295064563E+04   -0.11523E-05   -0.51343E-08  4192   0.150E-04    0.117E-04
DAV:  11    -0.137295064634E+04   -0.70155E-06   -0.27501E-08  4000   0.118E-04    0.846E-05
DAV:  12    -0.137295064684E+04   -0.50444E-06   -0.18208E-08  3936   0.104E-04    0.567E-05
DAV:  13    -0.137295064709E+04   -0.24789E-06   -0.57142E-09  3488   0.825E-05    0.382E-05
DAV:  14    -0.137295064724E+04   -0.15591E-06   -0.32023E-09  3136   0.741E-05    0.247E-05
DAV:  15    -0.137295064734E+04   -0.94704E-07   -0.19343E-09  3136   0.607E-05    0.192E-05
DAV:  16    -0.137295064740E+04   -0.57262E-07   -0.84003E-10  3072   0.452E-05    0.113E-05
DAV:  17    -0.137295064743E+04   -0.34634E-07   -0.37887E-10  3072   0.422E-05    0.109E-05
DAV:  18    -0.137295064744E+04   -0.11612E-07    0.28503E-10  3072   0.267E-05    0.964E-06
DAV:  19    -0.137295064745E+04   -0.58644E-08    0.61073E-10  3072   0.164E-05
  54 F= -.13922485E+04 E0= -.13922485E+04  d E =-.356091E-03  mag=    -0.0000
       N       E                     dE             d eps       ncg     rms          rms(c)
DAV:   1    -0.137295058338E+04    0.64059E-04   -0.49262E-01  5056   0.505E-01    0.136E-01
DAV:   2    -0.137295067051E+04   -0.87130E-04   -0.36834E-03  5280   0.429E-02    0.871E-02
DAV:   3    -0.137295056461E+04    0.10590E-03   -0.55603E-04  5568   0.160E-02    0.207E-02
DAV:   4    -0.137295057324E+04   -0.86346E-05   -0.10259E-04  5888   0.455E-03    0.889E-03
DAV:   5    -0.137295057194E+04    0.13051E-05   -0.94647E-06  5280   0.213E-03    0.366E-03
DAV:   6    -0.137295057253E+04   -0.59319E-06   -0.13673E-06  5312   0.867E-04    0.146E-03
DAV:   7    -0.137295057336E+04   -0.82594E-06   -0.24940E-07  4640   0.425E-04    0.532E-04
DAV:   8    -0.137295057421E+04   -0.85551E-06   -0.58287E-08  4192   0.197E-04    0.323E-04
DAV:   9    -0.137295057515E+04   -0.93076E-06   -0.28494E-08  4128   0.147E-04    0.201E-04
DAV:  10    -0.137295057618E+04   -0.10355E-05   -0.35697E-08  4064   0.124E-04    0.134E-04
DAV:  11    -0.137295057687E+04   -0.68577E-06   -0.19881E-08  3808   0.101E-04    0.961E-05
DAV:  12    -0.137295057741E+04   -0.54680E-06   -0.15995E-08  3872   0.873E-05    0.671E-05
DAV:  13    -0.137295057773E+04   -0.31533E-06   -0.63904E-09  3456   0.747E-05    0.394E-05
DAV:  14    -0.137295057789E+04   -0.16621E-06   -0.26227E-09  3136   0.589E-05    0.299E-05
DAV:  15    -0.137295057798E+04   -0.82262E-07   -0.12204E-09  3072   0.451E-05    0.200E-05
DAV:  16    -0.137295057804E+04   -0.63053E-07   -0.10414E-09  3072   0.469E-05    0.134E-05
DAV:  17    -0.137295057806E+04   -0.15818E-07   -0.91086E-11  3072   0.381E-05    0.138E-05
DAV:  18    -0.137295057807E+04   -0.11525E-07    0.50627E-10  3072   0.220E-05    0.713E-06
DAV:  19    -0.137295057807E+04   -0.56461E-08    0.62227E-10  3072   0.154E-05
  55 F= -.13922481E+04 E0= -.13922481E+04  d E =0.406172E-03  mag=     0.0000
       N       E                     dE             d eps       ncg     rms          rms(c)
DAV:   1    -0.137295023429E+04    0.34378E-03   -0.49226E-01  5056   0.513E-01    0.143E-01
DAV:   2    -0.137295042546E+04   -0.19117E-03   -0.45350E-03  5440   0.460E-02    0.925E-02
DAV:   3    -0.137295031068E+04    0.11478E-03   -0.51685E-04  5536   0.157E-02    0.314E-02
DAV:   4    -0.137295031969E+04   -0.90134E-05   -0.13594E-04  5824   0.611E-03    0.115E-02
DAV:   5    -0.137295031766E+04    0.20265E-05   -0.15236E-05  5760   0.272E-03    0.521E-03
DAV:   6    -0.137295031823E+04   -0.56507E-06   -0.32073E-06  5888   0.117E-03    0.194E-03
DAV:   7    -0.137295031878E+04   -0.55756E-06   -0.33710E-07  4736   0.518E-04    0.913E-04
DAV:   8    -0.137295031939E+04   -0.60645E-06   -0.12704E-07  4512   0.316E-04    0.353E-04
DAV:   9    -0.137295031978E+04   -0.39232E-06   -0.24944E-08  4160   0.170E-04    0.234E-04
DAV:  10    -0.137295032031E+04   -0.52381E-06   -0.19186E-08  4032   0.146E-04    0.140E-04
DAV:  11    -0.137295032073E+04   -0.42398E-06   -0.21615E-08  3936   0.149E-04    0.828E-05
DAV:  12    -0.137295032095E+04   -0.21656E-06   -0.10487E-08  3728   0.993E-05    0.628E-05
DAV:  13    -0.137295032106E+04   -0.11173E-06   -0.24243E-09  3136   0.578E-05    0.423E-05
DAV:  14    -0.137295032117E+04   -0.11439E-06   -0.39569E-09  3296   0.556E-05    0.216E-05
DAV:  15    -0.137295032121E+04   -0.33353E-07   -0.86948E-10  3136   0.446E-05    0.173E-05
DAV:  16    -0.137295032124E+04   -0.29584E-07   -0.50527E-10  3072   0.352E-05    0.104E-05
DAV:  17    -0.137295032125E+04   -0.14188E-07    0.16474E-11  3072   0.290E-05    0.102E-05
DAV:  18    -0.137295032126E+04   -0.41473E-08    0.52471E-10  3072   0.217E-05
  56 F= -.13922481E+04 E0= -.13922481E+04  d E =-.763715E-05  mag=    -0.0000
       N       E                     dE             d eps       ncg     rms          rms(c)
DAV:   1    -0.137294953904E+04    0.78221E-03   -0.49917E-01  5056   0.450E-01    0.164E-01
DAV:   2    -0.137294945519E+04    0.83847E-04   -0.38959E-03  5376   0.420E-02    0.944E-02
DAV:   3    -0.137294935395E+04    0.10125E-03   -0.82418E-04  5664   0.192E-02    0.312E-02
DAV:   4    -0.137294935016E+04    0.37824E-05   -0.11017E-04  6080   0.627E-03    0.165E-02
DAV:   5    -0.137294935108E+04   -0.91885E-06   -0.13834E-05  5712   0.247E-03    0.547E-03
DAV:   6    -0.137294935133E+04   -0.24555E-06   -0.35611E-06  5248   0.129E-03    0.234E-03
DAV:   7    -0.137294935230E+04   -0.96638E-06   -0.51854E-07  5408   0.526E-04    0.870E-04
DAV:   8    -0.137294935337E+04   -0.10697E-05   -0.14632E-07  4704   0.336E-04    0.432E-04
DAV:   9    -0.137294935421E+04   -0.84264E-06   -0.43165E-08  4128   0.196E-04    0.268E-04
DAV:  10    -0.137294935518E+04   -0.97512E-06   -0.42264E-08  4384   0.182E-04    0.174E-04
DAV:  11    -0.137294935606E+04   -0.88113E-06   -0.43604E-08  4352   0.184E-04    0.111E-04
DAV:  12    -0.137294935660E+04   -0.54033E-06   -0.23052E-08  3904   0.139E-04    0.820E-05
DAV:  13    -0.137294935693E+04   -0.32155E-06   -0.10693E-08  3840   0.104E-04    0.606E-05
DAV:  14    -0.137294935710E+04   -0.17404E-06   -0.41870E-09  3296   0.877E-05    0.328E-05
DAV:  15    -0.137294935720E+04   -0.10015E-06   -0.31732E-09  3136   0.803E-05    0.251E-05
DAV:  16    -0.137294935727E+04   -0.69544E-07   -0.20848E-09  3072   0.667E-05    0.201E-05
DAV:  17    -0.137294935732E+04   -0.48720E-07   -0.10029E-09  3072   0.463E-05    0.106E-05
DAV:  18    -0.137294935734E+04   -0.17535E-07   -0.52382E-11  3072   0.350E-05    0.756E-06
DAV:  19    -0.137294935735E+04   -0.91241E-08    0.48200E-10  3072   0.203E-05
  57 F= -.13922473E+04 E0= -.13922473E+04  d E =0.727755E-03  mag=    -0.0000
       N       E                     dE             d eps       ncg     rms          rms(c)
DAV:   1    -0.137295198925E+04   -0.26319E-02   -0.49006E-01  5120   0.446E-01    0.176E-01
DAV:   2    -0.137295186267E+04    0.12659E-03   -0.40489E-03  5536   0.433E-02    0.991E-02
DAV:   3    -0.137295174939E+04    0.11327E-03   -0.10252E-03  5536   0.193E-02    0.310E-02
DAV:   4    -0.137295174099E+04    0.84065E-05   -0.10956E-04  5952   0.633E-03    0.189E-02
DAV:   5    -0.137295174044E+04    0.54238E-06   -0.22604E-05  6144   0.311E-03    0.673E-03
DAV:   6    -0.137295174058E+04   -0.13363E-06   -0.33337E-06  5152   0.127E-03    0.240E-03
DAV:   7    -0.137295174110E+04   -0.52270E-06   -0.63576E-07  5664   0.581E-04    0.857E-04
DAV:   8    -0.137295174179E+04   -0.69116E-06   -0.11644E-07  4128   0.269E-04    0.540E-04
DAV:   9    -0.137295174259E+04   -0.79928E-06   -0.34825E-08  4224   0.178E-04    0.261E-04
DAV:  10    -0.137295174352E+04   -0.93266E-06   -0.40937E-08  4224   0.188E-04    0.185E-04
DAV:  11    -0.137295174434E+04   -0.81323E-06   -0.32499E-08  4112   0.165E-04    0.129E-04
DAV:  12    -0.137295174491E+04   -0.57086E-06   -0.20401E-08  3936   0.116E-04    0.795E-05
DAV:  13    -0.137295174518E+04   -0.27193E-06   -0.46096E-09  3392   0.685E-05    0.568E-05
DAV:  14    -0.137295174540E+04   -0.21997E-06   -0.46085E-09  3360   0.570E-05    0.387E-05
DAV:  15    -0.137295174550E+04   -0.10070E-06   -0.14365E-09  3136   0.474E-05    0.275E-05
DAV:  16    -0.137295174560E+04   -0.96479E-07   -0.17778E-09  3136   0.496E-05    0.215E-05
DAV:  17    -0.137295174564E+04   -0.39814E-07   -0.47376E-10  3072   0.433E-05    0.151E-05
DAV:  18    -0.137295174566E+04   -0.24767E-07   -0.13475E-10  3072   0.375E-05    0.103E-05
DAV:  19    -0.137295174567E+04   -0.10943E-07    0.30792E-10  3072   0.277E-05    0.125E-05
DAV:  20    -0.137295174568E+04   -0.36380E-08    0.63064E-10  3056   0.144E-05
  58 F= -.13922497E+04 E0= -.13922497E+04  d E =-.237883E-02  mag=    -0.0000
       N       E                     dE             d eps       ncg     rms          rms(c)
DAV:   1    -0.137295008468E+04    0.16610E-02   -0.46307E-01  5120   0.474E-01    0.128E-01
DAV:   2    -0.137295027820E+04   -0.19352E-03   -0.40127E-03  6048   0.396E-02    0.812E-02
DAV:   3    -0.137295022233E+04    0.55869E-04   -0.34939E-04  5920   0.145E-02    0.254E-02
DAV:   4    -0.137295022838E+04   -0.60484E-05   -0.61550E-05  5952   0.499E-03    0.902E-03
DAV:   5    -0.137295022822E+04    0.16356E-06   -0.79647E-06  6048   0.243E-03    0.378E-03
DAV:   6    -0.137295022881E+04   -0.59130E-06   -0.11638E-06  6464   0.115E-03    0.169E-03
DAV:   7    -0.137295022974E+04   -0.93448E-06   -0.19017E-07  5056   0.440E-04    0.685E-04
DAV:   8    -0.137295023090E+04   -0.11596E-05   -0.78068E-08  4448   0.284E-04    0.357E-04
DAV:   9    -0.137295023206E+04   -0.11569E-05   -0.37754E-08  4320   0.194E-04    0.238E-04
DAV:  10    -0.137295023364E+04   -0.15754E-05   -0.69954E-08  4288   0.226E-04    0.142E-04
DAV:  11    -0.137295023437E+04   -0.73643E-06   -0.30778E-08  4384   0.157E-04    0.103E-04
DAV:  12    -0.137295023485E+04   -0.47704E-06   -0.87998E-09  3584   0.976E-05    0.638E-05
DAV:  13    -0.137295023518E+04   -0.32822E-06   -0.88187E-09  3680   0.914E-05    0.422E-05
DAV:  14    -0.137295023532E+04   -0.14520E-06   -0.34295E-09  3232   0.953E-05    0.283E-05
DAV:  15    -0.137295023539E+04   -0.67477E-07   -0.25379E-09  3072   0.865E-05    0.199E-05
DAV:  16    -0.137295023542E+04   -0.28871E-07   -0.73563E-10  3072   0.561E-05    0.141E-05
DAV:  17    -0.137295023544E+04   -0.16924E-07   -0.65375E-11  3072   0.355E-05    0.116E-05
DAV:  18    -0.137295023544E+04   -0.21100E-08    0.55940E-10  3072   0.213E-05
  59 F= -.13922479E+04 E0= -.13922479E+04  d E =0.182036E-02  mag=    -0.0000
       N       E                     dE             d eps       ncg     rms          rms(c)
DAV:   1    -0.137294950421E+04    0.73123E-03   -0.49409E-01  5120   0.446E-01    0.169E-01
DAV:   2    -0.137294946251E+04    0.41696E-04   -0.42918E-03  5440   0.425E-02    0.938E-02
DAV:   3    -0.137294933667E+04    0.12584E-03   -0.81237E-04  5664   0.169E-02    0.288E-02
DAV:   4    -0.137294933425E+04    0.24164E-05   -0.79626E-05  6016   0.534E-03    0.165E-02
DAV:   5    -0.137294933284E+04    0.14122E-05   -0.18399E-05  6016   0.274E-03    0.557E-03
DAV:   6    -0.137294933339E+04   -0.55121E-06   -0.33231E-06  5280   0.124E-03    0.219E-03
DAV:   7    -0.137294933426E+04   -0.87400E-06   -0.47395E-07  5504   0.505E-04    0.912E-04
DAV:   8    -0.137294933519E+04   -0.93029E-06   -0.10760E-07  4768   0.306E-04    0.430E-04
DAV:   9    -0.137294933605E+04   -0.85324E-06   -0.39671E-08  4384   0.204E-04    0.252E-04
DAV:  10    -0.137294933699E+04   -0.93944E-06   -0.35427E-08  4256   0.160E-04    0.157E-04
DAV:  11    -0.137294933777E+04   -0.78126E-06   -0.33283E-08  4160   0.145E-04    0.974E-05
DAV:  12    -0.137294933820E+04   -0.43574E-06   -0.13479E-08  3808   0.901E-05    0.686E-05
DAV:  13    -0.137294933849E+04   -0.28273E-06   -0.57129E-09  3296   0.626E-05    0.418E-05
DAV:  14    -0.137294933867E+04   -0.18433E-06   -0.44047E-09  3200   0.630E-05    0.267E-05
DAV:  15    -0.137294933877E+04   -0.10124E-06   -0.30916E-09  3072   0.654E-05    0.190E-05
DAV:  16    -0.137294933883E+04   -0.54963E-07   -0.17779E-09  3072   0.533E-05    0.131E-05
DAV:  17    -0.137294933885E+04   -0.26819E-07   -0.63424E-10  3072   0.323E-05    0.826E-06
DAV:  18    -0.137294933887E+04   -0.14363E-07    0.13525E-10  3072   0.248E-05    0.609E-06
DAV:  19    -0.137294933887E+04   -0.57917E-08    0.51592E-10  3072   0.152E-05
  60 F= -.13922471E+04 E0= -.13922471E+04  d E =0.847606E-03  mag=     0.0000
       N       E                     dE             d eps       ncg     rms          rms(c)
DAV:   1    -0.137295229294E+04   -0.29541E-02   -0.49713E-01  5120   0.460E-01    0.176E-01
DAV:   2    -0.137295202490E+04    0.26804E-03   -0.41416E-03  5536   0.469E-02    0.896E-02
DAV:   3    -0.137295192731E+04    0.97585E-04   -0.99555E-04  5952   0.219E-02    0.333E-02
DAV:   4    -0.137295192153E+04    0.57859E-05   -0.10244E-04  6112   0.680E-03    0.194E-02
DAV:   5    -0.137295192286E+04   -0.13315E-05   -0.15501E-05  5728   0.301E-03    0.599E-03
DAV:   6    -0.137295192235E+04    0.50830E-06   -0.56604E-06  5696   0.186E-03    0.225E-03
DAV:   7    -0.137295192249E+04   -0.13852E-06   -0.62700E-07  5456   0.719E-04    0.120E-03
DAV:   8    -0.137295192270E+04   -0.21562E-06   -0.18577E-07  5120   0.483E-04    0.501E-04
DAV:   9    -0.137295192293E+04   -0.22912E-06   -0.70003E-08  4800   0.312E-04    0.302E-04
DAV:  10    -0.137295192319E+04   -0.25376E-06   -0.17944E-08  3776   0.234E-04    0.191E-04
DAV:  11    -0.137295192356E+04   -0.37145E-06   -0.34252E-08  4320   0.298E-04    0.146E-04
DAV:  12    -0.137295192386E+04   -0.30038E-06   -0.32613E-08  4480   0.254E-04    0.957E-05
DAV:  13    -0.137295192403E+04   -0.17014E-06   -0.11729E-08  3904   0.130E-04    0.868E-05
DAV:  14    -0.137295192414E+04   -0.10958E-06   -0.20617E-09  3200   0.570E-05    0.452E-05
DAV:  15    -0.137295192425E+04   -0.11599E-06   -0.35782E-09  3232   0.546E-05    0.329E-05
DAV:  16    -0.137295192430E+04   -0.47221E-07   -0.72483E-10  3072   0.471E-05    0.232E-05
DAV:  17    -0.137295192436E+04   -0.56010E-07   -0.12066E-09  3136   0.439E-05    0.143E-05
DAV:  18    -0.137295192437E+04   -0.13926E-07    0.69403E-11  3136   0.310E-05    0.126E-05
DAV:  19    -0.137295192438E+04   -0.12573E-07    0.19472E-10  3072   0.258E-05    0.584E-06
DAV:  20    -0.137295192439E+04   -0.65338E-08    0.46380E-10  3072   0.209E-05
  61 F= -.13922500E+04 E0= -.13922500E+04  d E =-.289914E-02  mag=    -0.0000
       N       E                     dE             d eps       ncg     rms          rms(c)
DAV:   1    -0.137295042910E+04    0.14953E-02   -0.49760E-01  5120   0.470E-01    0.146E-01
DAV:   2    -0.137295037840E+04    0.50699E-04   -0.42262E-03  5984   0.421E-02    0.862E-02
DAV:   3    -0.137295027254E+04    0.10587E-03   -0.55117E-04  5984   0.164E-02    0.259E-02
DAV:   4    -0.137295027941E+04   -0.68715E-05   -0.88516E-05  6400   0.559E-03    0.939E-03
DAV:   5    -0.137295028034E+04   -0.93307E-06   -0.76003E-06  5696   0.242E-03    0.406E-03
DAV:   6    -0.137295028046E+04   -0.12098E-06   -0.13576E-06  5984   0.132E-03    0.170E-03
DAV:   7    -0.137295028078E+04   -0.31620E-06   -0.33092E-07  5568   0.548E-04    0.622E-04
DAV:   8    -0.137295028112E+04   -0.33835E-06   -0.64535E-08  4416   0.304E-04    0.337E-04
DAV:   9    -0.137295028151E+04   -0.39236E-06   -0.21716E-08  4032   0.226E-04    0.210E-04
DAV:  10    -0.137295028195E+04   -0.44535E-06   -0.29887E-08  4464   0.243E-04    0.144E-04
DAV:  11    -0.137295028231E+04   -0.35683E-06   -0.24502E-08  4176   0.221E-04    0.965E-05
DAV:  12    -0.137295028253E+04   -0.21607E-06   -0.10705E-08  4016   0.129E-04    0.705E-05
DAV:  13    -0.137295028265E+04   -0.12702E-06   -0.27911E-09  3264   0.625E-05    0.412E-05
DAV:  14    -0.137295028277E+04   -0.11310E-06   -0.40512E-09  3232   0.564E-05    0.285E-05
DAV:  15    -0.137295028280E+04   -0.31971E-07   -0.97415E-10  3136   0.404E-05    0.185E-05
DAV:  16    -0.137295028284E+04   -0.37544E-07   -0.12323E-09  3072   0.369E-05    0.165E-05
DAV:  17    -0.137295028285E+04   -0.10012E-07   -0.11946E-10  3072   0.288E-05    0.147E-05
DAV:  18    -0.137295028285E+04   -0.58062E-08    0.26866E-10  3072   0.255E-05
  62 F= -.13922481E+04 E0= -.13922481E+04  d E =0.188550E-02  mag=    -0.0000
       N       E                     dE             d eps       ncg     rms          rms(c)
DAV:   1    -0.137295055802E+04   -0.27517E-03   -0.48573E-01  5120   0.401E-01    0.155E-01
DAV:   2    -0.137295043097E+04    0.12705E-03   -0.36749E-03  5344   0.373E-02    0.902E-02
DAV:   3    -0.137295027495E+04    0.15602E-03   -0.73581E-04  5472   0.166E-02    0.251E-02
DAV:   4    -0.137295027902E+04   -0.40664E-05   -0.12226E-04  5632   0.601E-03    0.119E-02
DAV:   5    -0.137295027815E+04    0.86936E-06   -0.12498E-05  6048   0.230E-03    0.553E-03
DAV:   6    -0.137295027793E+04    0.21662E-06   -0.36364E-06  5216   0.125E-03    0.187E-03
DAV:   7    -0.137295027806E+04   -0.12774E-06   -0.45651E-07  5280   0.580E-04    0.110E-03
DAV:   8    -0.137295027824E+04   -0.17874E-06   -0.15277E-07  4224   0.306E-04    0.469E-04
DAV:   9    -0.137295027840E+04   -0.16300E-06   -0.33745E-08  3680   0.172E-04    0.243E-04
DAV:  10    -0.137295027856E+04   -0.16019E-06   -0.10669E-08  3648   0.132E-04    0.146E-04
DAV:  11    -0.137295027877E+04   -0.20766E-06   -0.16773E-08  3968   0.151E-04    0.826E-05
DAV:  12    -0.137295027888E+04   -0.11110E-06   -0.84579E-09  3520   0.109E-04    0.563E-05
DAV:  13    -0.137295027896E+04   -0.74695E-07   -0.38974E-09  3200   0.806E-05    0.451E-05
DAV:  14    -0.137295027900E+04   -0.48138E-07   -0.25139E-09  3072   0.706E-05    0.281E-05
DAV:  15    -0.137295027904E+04   -0.36729E-07   -0.25020E-09  3136   0.718E-05    0.188E-05
DAV:  16    -0.137295027906E+04   -0.19849E-07   -0.11735E-09  3072   0.509E-05    0.176E-05
DAV:  17    -0.137295027907E+04   -0.12689E-07   -0.42486E-10  3072   0.346E-05    0.865E-06
DAV:  18    -0.137295027908E+04   -0.57335E-08    0.17235E-10  3072   0.259E-05
  63 F= -.13922481E+04 E0= -.13922481E+04  d E =-.277014E-04  mag=     0.0000
       N       E                     dE             d eps       ncg     rms          rms(c)
DAV:   1    -0.137295067730E+04   -0.39822E-03   -0.49587E-01  4992   0.409E-01    0.152E-01
DAV:   2    -0.137295053443E+04    0.14287E-03   -0.33640E-03  5408   0.358E-02    0.910E-02
DAV:   3    -0.137295039594E+04    0.13848E-03   -0.79536E-04  5440   0.166E-02    0.194E-02
DAV:   4    -0.137295040064E+04   -0.46951E-05   -0.88369E-05  5568   0.524E-03    0.104E-02
DAV:   5    -0.137295040075E+04   -0.11432E-06   -0.97986E-06  6080   0.225E-03    0.449E-03
DAV:   6    -0.137295040085E+04   -0.99506E-07   -0.17136E-06  5216   0.100E-03    0.163E-03
DAV:   7    -0.137295040106E+04   -0.20485E-06   -0.35212E-07  4944   0.417E-04    0.658E-04
DAV:   8    -0.137295040121E+04   -0.14878E-06   -0.60090E-08  4000   0.192E-04    0.324E-04
DAV:   9    -0.137295040133E+04   -0.12708E-06   -0.11095E-08  3616   0.100E-04    0.165E-04
DAV:  10    -0.137295040147E+04   -0.13813E-06   -0.56764E-09  3488   0.811E-05    0.101E-04
DAV:  11    -0.137295040165E+04   -0.17746E-06   -0.12576E-08  3872   0.102E-04    0.576E-05
DAV:  12    -0.137295040173E+04   -0.79817E-07   -0.34404E-09  3360   0.696E-05    0.436E-05
DAV:  13    -0.137295040179E+04   -0.55850E-07   -0.16388E-09  3136   0.549E-05    0.308E-05
DAV:  14    -0.137295040184E+04   -0.49768E-07   -0.15969E-09  3136   0.504E-05    0.178E-05
DAV:  15    -0.137295040186E+04   -0.23050E-07   -0.67611E-10  3072   0.403E-05    0.133E-05
DAV:  16    -0.137295040188E+04   -0.16487E-07   -0.29063E-10  3072   0.337E-05    0.864E-06
DAV:  17    -0.137295040188E+04   -0.74942E-08    0.24742E-10  3072   0.248E-05
  64 F= -.13922479E+04 E0= -.13922479E+04  d E =0.160283E-03  mag=     0.0000
