       N       E                     dE             d eps       ncg     rms          rms(c)
DAV:   1    -0.132789821318E+04   -0.13279E+04   -0.13073E+00  6304   0.973E-01    0.948E-01
DAV:   2    -0.132964585267E+04   -0.17476E+01   -0.11661E+00  6240   0.945E-01    0.404E-01
DAV:   3    -0.132965570268E+04   -0.98500E-02   -0.40352E-02  6720   0.224E-01    0.275E-01
DAV:   4    -0.132965573799E+04   -0.35303E-04   -0.20529E-03  5568   0.563E-02    0.223E-01
DAV:   5    -0.132965574392E+04   -0.59332E-05   -0.20223E-04  6784   0.181E-02    0.187E-01
DAV:   6    -0.132965575486E+04   -0.10943E-04   -0.23720E-05  6656   0.714E-03    0.162E-01
DAV:   7    -0.132965576214E+04   -0.72763E-05   -0.23335E-05  6656   0.801E-03    0.130E-01
DAV:   8    -0.132965576811E+04   -0.59664E-05   -0.17007E-05  5920   0.647E-03    0.106E-01
DAV:   9    -0.132965577321E+04   -0.51038E-05   -0.48541E-06  4224   0.349E-03    0.904E-02
DAV:  10    -0.132965577878E+04   -0.55690E-05   -0.18629E-05  6176   0.678E-03    0.580E-02
DAV:  11    -0.132965578320E+04   -0.44171E-05   -0.30498E-05  6720   0.894E-03    0.208E-02
DAV:  12    -0.132965578439E+04   -0.11947E-05   -0.51346E-06  4608   0.319E-03    0.110E-02
DAV:  13    -0.132965578457E+04   -0.17746E-06   -0.59115E-07  3136   0.121E-03
   1 F= -.13485815E+04 E0= -.13485815E+04  d E =-.258914E-15  mag=    -0.0000
