 vasp.5.4.4.18Apr17-6-g9f103f2a35 (build Mar 06 2019 16:23:31) complex          
  
 executed on             LinuxIFC date 2021.11.07  14:13:55
 running on  128 total cores
 distrk:  each k-point on  128 cores,    1 groups
 distr:  one band on NCORES_PER_BAND=  16 cores,    8 groups


--------------------------------------------------------------------------------------------------------


 INCAR:
 POTCAR:    PAW_PBE Zr_sv 04Jan2005               
 POTCAR:    PAW_PBE O 08Apr2002                   
 POTCAR:    PAW_PBE H 15Jun2001                   
 POTCAR:    PAW_PBE C 08Apr2002                   
 POTCAR:    PAW_PBE Zr_sv 04Jan2005               
   VRHFIN =Zr: 4s4p5s4d                                                         
   LEXCH  = PE                                                                  
   EATOM  =  1284.2219 eV,   94.3876 Ry                                         
                                                                                
   TITEL  = PAW_PBE Zr_sv 04Jan2005                                             
   LULTRA =        F    use ultrasoft PP ?                                      
   IUNSCR =        1    unscreen: 0-lin 1-nonlin 2-no                           
   RPACOR =    2.200    partial core radius                                     
   POMASS =   91.224; ZVAL   =   12.000    mass and valenz                      
   RCORE  =    2.500    outmost cutoff radius                                   
   RWIGS  =    3.070; RWIGS  =    1.625    wigner-seitz radius (au A)           
   ENMAX  =  229.898; ENMIN  =  172.424 eV                                      
   ICORE  =        3    local potential                                         
   LCOR   =        T    correct aug charges                                     
   LPAW   =        T    paw PP                                                  
   EAUG   =  461.257                                                            
   DEXC   =    0.000                                                            
   RMAX   =    2.561    core radius for proj-oper                               
   RAUG   =    1.300    factor for augmentation sphere                          
   RDEP   =    2.597    radius for radial grids                                 
   RDEPT  =    2.007    core radius for aug-charge                              
                                                                                
   Atomic configuration                                                         
   11 entries                                                                   
     n  l   j            E        occ.                                          
     1  0  0.50    -17820.0161   2.0000                                         
     2  0  0.50     -2467.0882   2.0000                                         
     2  1  1.50     -2199.6095   6.0000                                         
     3  0  0.50      -402.4863   2.0000                                         
     3  1  1.50      -315.3675   6.0000                                         
     3  2  2.50      -172.4472  10.0000                                         
     4  0  0.50       -52.4146   2.0000                                         
     5  0  0.50        -3.8421   1.0000                                         
     4  1  1.50       -30.5054   6.0000                                         
     4  2  2.50        -2.3341   3.0000                                         
     4  3  2.50        -1.3606   0.0000                                         
   Description                                                                  
     l       E           TYP  RCUT    TYP  RCUT                                 
     0    -52.4145962     23  2.200                                             
     0     -3.8421270     23  2.500                                             
     1    -30.5053914     23  2.200                                             
     1     20.4087390     23  2.200                                             
     2     -2.3340816     23  2.500                                             
     2     -0.6120942     23  2.500                                             
     3     -4.0817478     23  2.500                                             
  local pseudopotential read in
  partial core-charges read in
  partial kinetic energy density read in
  atomic valenz-charges read in
  non local Contribution for L=           0  read in
    real space projection operators read in
  non local Contribution for L=           0  read in
    real space projection operators read in
  non local Contribution for L=           1  read in
    real space projection operators read in
  non local Contribution for L=           1  read in
    real space projection operators read in
  non local Contribution for L=           2  read in
    real space projection operators read in
  non local Contribution for L=           2  read in
    real space projection operators read in
    PAW grid and wavefunctions read in
 
   number of l-projection  operators is LMAX  =           6
   number of lm-projection operators is LMMAX =          18
 
 POTCAR:    PAW_PBE O 08Apr2002                   
   VRHFIN =O: s2p4                                                              
   LEXCH  = PE                                                                  
   EATOM  =   432.3788 eV,   31.7789 Ry                                         
                                                                                
   TITEL  = PAW_PBE O 08Apr2002                                                 
   LULTRA =        F    use ultrasoft PP ?                                      
   IUNSCR =        1    unscreen: 0-lin 1-nonlin 2-no                           
   RPACOR =    1.200    partial core radius                                     
   POMASS =   16.000; ZVAL   =    6.000    mass and valenz                      
   RCORE  =    1.520    outmost cutoff radius                                   
   RWIGS  =    1.550; RWIGS  =    0.820    wigner-seitz radius (au A)           
   ENMAX  =  400.000; ENMIN  =  300.000 eV                                      
   ICORE  =        2    local potential                                         
   LCOR   =        T    correct aug charges                                     
   LPAW   =        T    paw PP                                                  
   EAUG   =  605.392                                                            
   DEXC   =    0.000                                                            
   RMAX   =    1.553    core radius for proj-oper                               
   RAUG   =    1.300    factor for augmentation sphere                          
   RDEP   =    1.550    radius for radial grids                                 
   RDEPT  =    1.329    core radius for aug-charge                              
                                                                                
   Atomic configuration                                                         
    4 entries                                                                   
     n  l   j            E        occ.                                          
     1  0  0.50      -514.6923   2.0000                                         
     2  0  0.50       -23.9615   2.0000                                         
     2  1  0.50        -9.0305   4.0000                                         
     3  2  1.50        -9.5241   0.0000                                         
   Description                                                                  
     l       E           TYP  RCUT    TYP  RCUT                                 
     0    -23.9615318     23  1.200                                             
     0     -9.5240782     23  1.200                                             
     1     -9.0304911     23  1.520                                             
     1      8.1634956     23  1.520                                             
     2     -9.5240782      7  1.500                                             
  local pseudopotential read in
  partial core-charges read in
  partial kinetic energy density read in
  kinetic energy density of atom read in
  atomic valenz-charges read in
  non local Contribution for L=           0  read in
    real space projection operators read in
  non local Contribution for L=           0  read in
    real space projection operators read in
  non local Contribution for L=           1  read in
    real space projection operators read in
  non local Contribution for L=           1  read in
    real space projection operators read in
    PAW grid and wavefunctions read in
 
   number of l-projection  operators is LMAX  =           4
   number of lm-projection operators is LMMAX =           8
 
 POTCAR:    PAW_PBE H 15Jun2001                   
   VRHFIN =H: ultrasoft test                                                    
   LEXCH  = PE                                                                  
   EATOM  =    12.4884 eV,    0.9179 Ry                                         
                                                                                
   TITEL  = PAW_PBE H 15Jun2001                                                 
   LULTRA =        F    use ultrasoft PP ?                                      
   IUNSCR =        0    unscreen: 0-lin 1-nonlin 2-no                           
   RPACOR =    0.000    partial core radius                                     
   POMASS =    1.000; ZVAL   =    1.000    mass and valenz                      
   RCORE  =    1.100    outmost cutoff radius                                   
   RWIGS  =    0.700; RWIGS  =    0.370    wigner-seitz radius (au A)           
   ENMAX  =  250.000; ENMIN  =  200.000 eV                                      
   RCLOC  =    0.701    cutoff for local pot                                    
   LCOR   =        T    correct aug charges                                     
   LPAW   =        T    paw PP                                                  
   EAUG   =  400.000                                                            
   RMAX   =    1.123    core radius for proj-oper                               
   RAUG   =    1.200    factor for augmentation sphere                          
   RDEP   =    1.112    radius for radial grids                                 
   RDEPT  =    0.926    core radius for aug-charge                              
                                                                                
   Atomic configuration                                                         
    2 entries                                                                   
     n  l   j            E        occ.                                          
     1  0  0.50        -6.4927   1.0000                                         
     2  1  0.50        -3.4015   0.0000                                         
   Description                                                                  
     l       E           TYP  RCUT    TYP  RCUT                                 
     0     -6.4927494     23  1.100                                             
     0      6.8029130     23  1.100                                             
     1     -4.0817478     23  1.100                                             
  local pseudopotential read in
  atomic valenz-charges read in
  non local Contribution for L=           0  read in
    real space projection operators read in
  non local Contribution for L=           0  read in
    real space projection operators read in
  non local Contribution for L=           1  read in
    real space projection operators read in
    PAW grid and wavefunctions read in
 
   number of l-projection  operators is LMAX  =           3
   number of lm-projection operators is LMMAX =           5
 
 POTCAR:    PAW_PBE C 08Apr2002                   
   VRHFIN =C: s2p2                                                              
   LEXCH  = PE                                                                  
   EATOM  =   147.1560 eV,   10.8157 Ry                                         
                                                                                
   TITEL  = PAW_PBE C 08Apr2002                                                 
   LULTRA =        F    use ultrasoft PP ?                                      
   IUNSCR =        1    unscreen: 0-lin 1-nonlin 2-no                           
   RPACOR =    1.200    partial core radius                                     
   POMASS =   12.011; ZVAL   =    4.000    mass and valenz                      
   RCORE  =    1.500    outmost cutoff radius                                   
   RWIGS  =    1.630; RWIGS  =    0.863    wigner-seitz radius (au A)           
   ENMAX  =  400.000; ENMIN  =  300.000 eV                                      
   ICORE  =        2    local potential                                         
   LCOR   =        T    correct aug charges                                     
   LPAW   =        T    paw PP                                                  
   EAUG   =  644.873                                                            
   DEXC   =    0.000                                                            
   RMAX   =    1.529    core radius for proj-oper                               
   RAUG   =    1.300    factor for augmentation sphere                          
   RDEP   =    1.501    radius for radial grids                                 
   RDEPT  =    1.300    core radius for aug-charge                              
                                                                                
   Atomic configuration                                                         
    4 entries                                                                   
     n  l   j            E        occ.                                          
     1  0  0.50      -273.3789   2.0000                                         
     2  0  0.50       -13.7508   2.0000                                         
     2  1  0.50        -5.2854   2.0000                                         
     3  2  1.50        -5.4423   0.0000                                         
   Description                                                                  
     l       E           TYP  RCUT    TYP  RCUT                                 
     0    -13.7508458     23  1.200                                             
     0     -8.2022199     23  1.200                                             
     1     -5.2854383     23  1.500                                             
     1     34.0145650     23  1.500                                             
     2     -5.4423304      7  1.500                                             
  local pseudopotential read in
  partial core-charges read in
  partial kinetic energy density read in
  atomic valenz-charges read in
  non local Contribution for L=           0  read in
    real space projection operators read in
  non local Contribution for L=           0  read in
    real space projection operators read in
  non local Contribution for L=           1  read in
    real space projection operators read in
  non local Contribution for L=           1  read in
    real space projection operators read in
    PAW grid and wavefunctions read in
 
   number of l-projection  operators is LMAX  =           4
   number of lm-projection operators is LMMAX =           8
 
 Optimization of the real space projectors (new method)

 maximal supplied QI-value         = 15.12
 optimisation between [QCUT,QGAM] = [ 11.34, 22.83] = [ 36.00,145.93] Ry 
 Optimized for a Real-space Cutoff    1.47 Angstroem

   l    n(q)    QCUT    max X(q) W(low)/X(q) W(high)/X(q)  e(spline) 
   0     10    11.338    12.107    0.38E-04    0.13E-04    0.27E-07
   0     10    11.338     9.948    0.69E-04    0.30E-04    0.38E-07
   1     10    11.338     3.563    0.26E-04    0.18E-04    0.40E-07
   1     10    11.338     4.524    0.25E-03    0.39E-04    0.44E-06
   2      9    11.338    87.261    0.26E-03    0.91E-05    0.26E-06
   2      9    11.338    70.950    0.25E-03    0.91E-05    0.25E-06
 Optimization of the real space projectors (new method)

 maximal supplied QI-value         = 24.76
 optimisation between [QCUT,QGAM] = [ 11.39, 22.77] = [ 36.31,145.25] Ry 
 Optimized for a Real-space Cutoff    1.00 Angstroem

   l    n(q)    QCUT    max X(q) W(low)/X(q) W(high)/X(q)  e(spline) 
   0      7    11.387    20.381    0.39E-03    0.13E-02    0.15E-06
   0      7    11.387    15.268    0.42E-03    0.14E-02    0.17E-06
   1      6    11.387     5.964    0.41E-03    0.11E-02    0.17E-06
   1      6    11.387     5.382    0.39E-03    0.87E-03    0.15E-06
 Optimization of the real space projectors (new method)

 maximal supplied QI-value         = 34.20
 optimisation between [QCUT,QGAM] = [ 11.29, 22.57] = [ 35.68,142.71] Ry 
 Optimized for a Real-space Cutoff    1.16 Angstroem

   l    n(q)    QCUT    max X(q) W(low)/X(q) W(high)/X(q)  e(spline) 
   0      8    11.287    19.460    0.40E-03    0.73E-03    0.16E-06
   0      8    11.287    12.209    0.38E-03    0.70E-03    0.15E-06
   1      7    11.287     4.655    0.22E-03    0.25E-04    0.22E-06
 Optimization of the real space projectors (new method)

 maximal supplied QI-value         = 25.13
 optimisation between [QCUT,QGAM] = [ 11.31, 22.87] = [ 35.82,146.48] Ry 
 Optimized for a Real-space Cutoff    1.00 Angstroem

   l    n(q)    QCUT    max X(q) W(low)/X(q) W(high)/X(q)  e(spline) 
   0      7    11.310   115.676    0.43E-03    0.13E-02    0.19E-06
   0      7    11.310    87.132    0.43E-03    0.13E-02    0.18E-06
   1      6    11.310     4.429    0.42E-03    0.74E-03    0.11E-06
   1      6    11.310     2.733    0.34E-03    0.55E-03    0.92E-07
  PAW_PBE Zr_sv 04Jan2005               :
 energy of atom  1       EATOM=-1284.2219
 kinetic energy error for atom=    0.0049 (will be added to EATOM!!)
  PAW_PBE O 08Apr2002                   :
 energy of atom  2       EATOM= -432.3788
 kinetic energy error for atom=    0.0224 (will be added to EATOM!!)
  PAW_PBE H 15Jun2001                   :
 energy of atom  3       EATOM=  -12.4884
 kinetic energy error for atom=    0.0020 (will be added to EATOM!!)
  PAW_PBE C 08Apr2002                   :
 energy of atom  4       EATOM= -147.1560
 kinetic energy error for atom=    0.0076 (will be added to EATOM!!)
 
 
 POSCAR: Zr   O    H    C                        
  positions in direct lattice
  velocities in cartesian coordinates
  No initial velocities read in
 exchange correlation table for  LEXCH =        8
   RHO(1)=    0.500       N(1)  =     2000
   RHO(2)=  100.500       N(2)  =     4000

 VTST: version 3.2, (02/03/18)

 CHAIN: initializing optimizer
 
 OPT: Using Conjugate-Gradient optimizer
 OPT: CG, Init
 OPT: CG, FDSTEP      0.005000
 OPT: CG, MAXMOVE      0.200000
 
 CHAIN: Read ICHAIN            2
 
 POSCAR: Zr   O    H    C                        
  positions in direct lattice
  velocities in cartesian coordinates
  No initial velocities read in
 CHAIN: Running the Dimer method

 Dimer: -----------------
 Dimer: Input Parameters
 Dimer:   Seed      0
 Dimer: RotMax      4
 Dimer:     dR      0.005000
 Dimer:  FNMax      1.000000
 Dimer:  FNMin      0.010000
 Dimer: -----------------
 


--------------------------------------------------------------------------------------------------------


 ion  position               nearest neighbor table
   1  0.088  0.321  0.038-  78 2.10  62 2.10  50 2.18  74 2.19  61 2.26  54 2.30  16 3.37   6 3.50
                            12 3.52  13 3.65
   2  0.338  0.821  0.038-  79 2.10  63 2.10  51 2.18  75 2.19  58 2.26  55 2.30  13 3.37   7 3.50
                             9 3.52  14 3.65
   3  0.588  0.321  0.038-  80 2.10  64 2.10  52 2.18  76 2.19  59 2.26  56 2.30  14 3.37   8 3.50
                            10 3.52  15 3.65
   4  0.838  0.821  0.038-  81 2.10  65 2.10  53 2.18  77 2.19  60 2.26  57 2.30  15 3.37   5 3.50
                            11 3.52  16 3.65
   5  0.070  0.834  0.049-  82 2.07  66 2.10  65 2.18  58 2.19  57 2.22  70 2.30  12 3.37  17 3.47
                             4 3.50  16 3.52   9 3.65
   6  0.320  0.334  0.049-  83 2.06  67 2.10  62 2.18  59 2.19  54 2.22  71 2.30   9 3.37  18 3.47
                             1 3.50  13 3.52  10 3.65
   7  0.570  0.834  0.049-  84 2.06  68 2.10  63 2.18  60 2.19  55 2.22  72 2.30  10 3.37  19 3.48
                             2 3.50  14 3.52  11 3.65
   8  0.820  0.334  0.049-  85 2.08  69 2.10  64 2.18  61 2.19  56 2.22  73 2.30  11 3.37   3 3.50
                            20 3.50  15 3.52  12 3.65
   9  0.238  0.068  0.057-  62 2.10  86 2.16  67 2.18  70 2.19  75 2.22  58 2.30   6 3.37  17 3.48
                            14 3.50  22 3.52   2 3.52   5 3.65
  10  0.488  0.568  0.057-  63 2.10  87 2.17  68 2.18  71 2.19  76 2.22  59 2.30   7 3.37  18 3.48
                            15 3.50   3 3.52  23 3.52   6 3.65
  11  0.738  0.068  0.057-  64 2.10  69 2.18  88 2.18  72 2.19  77 2.22  60 2.30   8 3.37  19 3.47
                            16 3.50   4 3.52  24 3.52   7 3.65
  12  0.988  0.568  0.057-  65 2.10  66 2.18  89 2.18  73 2.19  74 2.22  61 2.30   5 3.37  13 3.50
                             1 3.52  21 3.53  20 3.53   8 3.65
  13  0.220  0.581  0.068-  51 2.10  66 2.10  79 2.18  54 2.19  71 2.26  90 2.26  74 2.30   2 3.37
                            26 3.49  21 3.49  12 3.50  18 3.50   6 3.52   1 3.65
  14  0.470  0.081  0.068-  52 2.10  67 2.10  80 2.18  55 2.19  72 2.26  91 2.26  75 2.30   3 3.37
                            27 3.48  22 3.49   9 3.50  19 3.51   7 3.52   2 3.65
  15  0.720  0.581  0.068-  53 2.10  68 2.10  81 2.18  56 2.19  73 2.26  92 2.26  76 2.30   4 3.37
                            28 3.49  23 3.50  10 3.50   8 3.52  20 3.53   3 3.65
  16  0.970  0.081  0.068-  50 2.10  69 2.10  78 2.18  57 2.19  70 2.26  93 2.26  77 2.30   1 3.37
                            17 3.50  11 3.50  24 3.50  25 3.50   5 3.52   4 3.65
  17  0.106  0.983  0.171-  94 2.09 110 2.13  82 2.17  70 2.19 106 2.19  93 2.23  86 2.30  32 3.39
                             5 3.47   9 3.48  16 3.50  22 3.52  25 3.54  29 3.66
  18  0.356  0.484  0.171-  95 2.09 111 2.13  83 2.16  71 2.19 107 2.19  90 2.23  87 2.30  29 3.38
                             6 3.47  10 3.48  13 3.50  23 3.52  26 3.53  30 3.65
  19  0.607  0.984  0.171-  96 2.09 112 2.14  84 2.18  72 2.19 108 2.20  91 2.23  88 2.28  30 3.38
                            11 3.47   7 3.48  24 3.49  14 3.51  27 3.53  31 3.70
  20  0.855  0.482  0.173-  97 2.10 113 2.11  85 2.18 109 2.20  92 2.23  73 2.24  89 2.32  31 3.32
                             8 3.50  28 3.51  12 3.53  15 3.53  21 3.53  32 3.65
  21  0.089  0.494  0.182- 114 2.09  98 2.11  97 2.17  90 2.18  74 2.24  89 2.27 102 2.29  25 3.37
                            13 3.49  32 3.51  12 3.53  20 3.53  26 3.63  33 3.64
  22  0.339  0.995  0.182- 115 2.10  99 2.11  94 2.17  91 2.19  75 2.23 103 2.25  86 2.28  26 3.38
                            14 3.49  29 3.51   9 3.52  17 3.52  34 3.61  27 3.62
  23  0.589  0.493  0.182- 100 2.08 116 2.11  95 2.17  92 2.18  76 2.23  87 2.28 104 2.30  27 3.37
                            15 3.50  18 3.52  35 3.52  10 3.52  30 3.55  28 3.68
  24  0.839  0.995  0.183- 117 2.10 101 2.11  96 2.18  93 2.18  77 2.25  88 2.27 105 2.28  28 3.37
                            19 3.49  16 3.50  11 3.52  31 3.54  36 3.61  25 3.64
  25  0.004  0.230  0.191-  78 2.10  97 2.10 121 2.17  98 2.19 105 2.21 106 2.30  93 2.30  21 3.37
                            37 3.45  16 3.50  17 3.54  29 3.55  24 3.64  36 3.66
  26  0.253  0.730  0.191-  79 2.10  94 2.10 102 2.18  99 2.20 118 2.20 107 2.29  90 2.29  22 3.38
                            38 3.45  13 3.49  18 3.53  30 3.55  21 3.63  33 3.65
  27  0.504  0.229  0.191-  80 2.09  95 2.11 119 2.18 100 2.19 103 2.19  91 2.29 108 2.29  23 3.37
                            39 3.46  14 3.48  19 3.53  31 3.59  22 3.62  34 3.66
  28  0.757  0.730  0.191-  81 2.08  96 2.11 101 2.17 120 2.22 104 2.22 109 2.25  92 2.30  24 3.37
                            15 3.49  20 3.51  32 3.51  35 3.53  40 3.53  23 3.68
  29  0.239  0.242  0.201-  98 2.10  83 2.10 122 2.20 103 2.21 111 2.21  86 2.23 106 2.28  18 3.38
                            37 3.42  42 3.50  22 3.51  25 3.55  34 3.63  17 3.66
  30  0.488  0.743  0.200-  99 2.09  84 2.09 112 2.19 123 2.20  87 2.22 104 2.25 107 2.30  19 3.38
                            38 3.44  43 3.48  35 3.53  26 3.55  23 3.55  18 3.65
  31  0.741  0.245  0.204-  85 2.11 100 2.12 113 2.13 105 2.22 124 2.24  88 2.29 108 2.31  20 3.32
                            39 3.44  24 3.54  44 3.55  27 3.59  36 3.63  19 3.70
  32  0.989  0.740  0.202- 101 2.11  82 2.13 110 2.19 125 2.21 102 2.21  89 2.22 109 2.28  17 3.39
                            41 3.47  40 3.49  28 3.51  21 3.51  33 3.63  20 3.65
  33  0.122  0.641  0.314- 142 2.02 126 2.16 138 2.17 114 2.21 125 2.24 118 2.37 102 2.42  45 3.23
                            41 3.47  38 3.54  32 3.63  21 3.64  26 3.65  46 3.72
  34  0.371  0.139  0.313- 143 2.03 127 2.14 139 2.18 115 2.20 122 2.24 119 2.35 103 2.43  46 3.23
                            42 3.49  39 3.52  22 3.61  29 3.63  27 3.66  47 3.67
  35  0.623  0.645  0.306- 140 2.15 128 2.17 116 2.20 144 2.20 123 2.20 104 2.23 120 2.27  49 3.33
                            47 3.39  43 3.44  23 3.52  30 3.53  28 3.53  40 3.55  48 3.71
  36  0.874  0.138  0.314- 145 2.03 129 2.12 141 2.13 117 2.22 124 2.29 105 2.38 121 2.44  48 3.23
                            44 3.42  37 3.55  24 3.61  31 3.63  25 3.66  45 3.76
  37  0.109  0.161  0.312- 130 2.09 121 2.13 122 2.16 106 2.16 129 2.17 134 2.17  29 3.42  25 3.45
                            41 3.45  45 3.51  36 3.55  42 3.58
  38  0.358  0.659  0.313- 131 2.10 126 2.15 107 2.16 135 2.16 118 2.16 123 2.17  42 3.44  30 3.44
                            26 3.45  46 3.53  33 3.54  43 3.58
  39  0.605  0.157  0.313- 136 2.08 132 2.11 127 2.15 108 2.15 124 2.19 119 2.21  43 3.43  31 3.44
                            27 3.46  47 3.47  34 3.52  44 3.67
  40  0.858  0.662  0.318- 133 2.11 125 2.18 120 2.18 137 2.21 109 2.25 128 2.25 146 2.28  32 3.49
                            48 3.49  44 3.53  28 3.53  35 3.55  41 3.60  49 3.69
  41  0.027  0.889  0.324- 110 2.05 138 2.15 129 2.16 137 2.17 130 2.19 125 2.31  37 3.45  32 3.47
                            33 3.47  46 3.50  40 3.60
  42  0.275  0.388  0.325- 111 2.06 139 2.13 126 2.15 131 2.23 134 2.26 122 2.29  38 3.44  34 3.49
                            47 3.50  29 3.50  37 3.58
  43  0.524  0.886  0.325- 112 2.06 140 2.14 127 2.14 132 2.18 135 2.27 123 2.29  39 3.43  35 3.44
                            30 3.48  48 3.54  38 3.58
  44  0.781  0.382  0.333- 147 2.07 141 2.12 133 2.17 113 2.22 128 2.25 124 2.25 136 2.61  49 3.27
                            36 3.42  45 3.46  40 3.53  31 3.55  39 3.67
  45  0.011  0.407  0.336- 142 2.03 114 2.06 133 2.17 141 2.23 134 2.29 121 2.30  33 3.23  44 3.46
                            37 3.51  36 3.76
  46  0.258  0.907  0.336- 143 2.02 115 2.07 130 2.15 138 2.28 118 2.29 135 2.30  34 3.23  41 3.50
                            38 3.53  33 3.72
  47  0.507  0.400  0.335- 116 2.07 136 2.13 131 2.18 144 2.18 139 2.24 119 2.24  35 3.39  39 3.47
                            42 3.50  34 3.67
  48  0.758  0.906  0.336- 145 2.01 117 2.06 132 2.17 137 2.27 120 2.31 140 2.35  36 3.23  40 3.49
                            43 3.54  35 3.71
  49  0.700  0.546  0.424- 147 1.93 151 1.95 146 2.15 144 2.17 128 2.34 158 2.64 156 2.74  44 3.27
                            35 3.33  40 3.69
  50  0.024  0.173  0.000-  16 2.10   1 2.18
  51  0.274  0.673  0.000-  13 2.10   2 2.18
  52  0.524  0.173  0.000-  14 2.10   3 2.18
  53  0.774  0.673  0.000-  15 2.10   4 2.18
  54  0.215  0.432  0.016-  13 2.19   6 2.22   1 2.30
  55  0.465  0.932  0.016-  14 2.19   7 2.22   2 2.30
  56  0.715  0.432  0.016-  15 2.19   8 2.22   3 2.30
  57  0.965  0.932  0.016-  16 2.19   5 2.22   4 2.30
  58  0.207  0.891  0.025-   5 2.19   2 2.26   9 2.30
  59  0.457  0.391  0.025-   6 2.19   3 2.26  10 2.30
  60  0.707  0.891  0.025-   7 2.19   4 2.26  11 2.30
  61  0.957  0.391  0.025-   8 2.19   1 2.26  12 2.30
  62  0.197  0.226  0.044-   9 2.10   1 2.10   6 2.18
  63  0.447  0.726  0.044-  10 2.10   2 2.10   7 2.18
  64  0.697  0.226  0.044-  11 2.10   3 2.10   8 2.18
  65  0.947  0.726  0.044-  12 2.10   4 2.10   5 2.18
  66  0.111  0.675  0.062-   5 2.10  13 2.10  12 2.18
  67  0.361  0.175  0.062-   6 2.10  14 2.10   9 2.18
  68  0.611  0.675  0.062-   7 2.10  15 2.10  10 2.18
  69  0.861  0.175  0.062-   8 2.10  16 2.10  11 2.18
  70  0.101  0.010  0.081-  17 2.19   9 2.19  16 2.26   5 2.30
  71  0.351  0.510  0.081-  18 2.19  10 2.19  13 2.26   6 2.30
  72  0.601  0.010  0.081-  19 2.19  11 2.19  14 2.26   7 2.30
  73  0.851  0.510  0.081-  12 2.19  20 2.24  15 2.26   8 2.30
  74  0.093  0.470  0.090-   1 2.19  12 2.22  21 2.24  13 2.30
  75  0.343  0.970  0.090-   2 2.19   9 2.22  22 2.23  14 2.30
  76  0.593  0.470  0.090-   3 2.19  10 2.22  23 2.23  15 2.30
  77  0.843  0.970  0.090-   4 2.19  11 2.22  24 2.25  16 2.30
  78  0.034  0.229  0.106-   1 2.10  25 2.10  16 2.18
  79  0.284  0.729  0.106-   2 2.10  26 2.10  13 2.18
  80  0.534  0.229  0.106-  27 2.09   3 2.10  14 2.18
  81  0.784  0.729  0.106-  28 2.08   4 2.10  15 2.18
  82  0.045  0.833  0.134-   5 2.07  32 2.13  17 2.17
  83  0.296  0.334  0.133-   6 2.06  29 2.10  18 2.16
  84  0.546  0.834  0.133-   7 2.06  30 2.09  19 2.18
  85  0.796  0.333  0.134-   8 2.08  31 2.11  20 2.18
  86  0.231  0.093  0.146-   9 2.16  29 2.23  22 2.28  17 2.30
  87  0.482  0.594  0.147-  10 2.17  30 2.22  23 2.28  18 2.30
  88  0.732  0.094  0.147-  11 2.18  24 2.27  19 2.28  31 2.29
  89  0.981  0.593  0.147-  12 2.18  32 2.22  21 2.27  20 2.32
  90  0.225  0.552  0.160-  21 2.18  18 2.23  13 2.26  26 2.29
  91  0.476  0.051  0.161-  22 2.19  19 2.23  14 2.26  27 2.29
  92  0.725  0.552  0.160-  23 2.18  20 2.23  15 2.26  28 2.30
  93  0.975  0.052  0.161-  24 2.18  17 2.23  16 2.26  25 2.30
  94  0.215  0.890  0.181-  17 2.09  26 2.10  22 2.17
  95  0.464  0.389  0.180-  18 2.09  27 2.11  23 2.17
  96  0.715  0.889  0.181-  19 2.09  28 2.11  24 2.18
  97  0.965  0.390  0.182-  20 2.10  25 2.10  21 2.17
  98  0.130  0.335  0.192-  29 2.10  21 2.11  25 2.19
  99  0.379  0.835  0.193-  30 2.09  22 2.11  26 2.20
 100  0.628  0.335  0.194-  23 2.08  31 2.12  27 2.19
 101  0.879  0.836  0.194-  24 2.11  32 2.11  28 2.17
 102  0.118  0.671  0.214-  26 2.18  32 2.21  21 2.29  33 2.42
 103  0.367  0.169  0.213-  27 2.19  29 2.21  22 2.25  34 2.43
 104  0.618  0.670  0.214-  28 2.22  35 2.23  30 2.25  23 2.30
 105  0.868  0.170  0.216-  25 2.21  31 2.22  24 2.28  36 2.38
 106  0.116  0.130  0.224-  37 2.16  17 2.19  29 2.28  25 2.30
 107  0.364  0.631  0.224-  38 2.16  18 2.19  26 2.29  30 2.30
 108  0.615  0.131  0.225-  39 2.15  19 2.20  27 2.29  31 2.31
 109  0.864  0.631  0.225-  20 2.20  40 2.25  28 2.25  32 2.28
 110  0.047  0.893  0.240-  41 2.05  17 2.13  32 2.19
 111  0.297  0.395  0.241-  42 2.06  18 2.13  29 2.21
 112  0.547  0.893  0.240-  43 2.06  19 2.14  30 2.19
 113  0.796  0.394  0.241-  20 2.11  31 2.13  44 2.22
 114  0.068  0.492  0.269-  45 2.06  21 2.09  33 2.21
 115  0.314  0.992  0.268-  46 2.07  22 2.10  34 2.20
 116  0.560  0.493  0.268-  47 2.07  23 2.11  35 2.20
 117  0.810  0.993  0.268-  48 2.06  24 2.10  36 2.22
 118  0.251  0.750  0.283-  38 2.16  26 2.20  46 2.29  33 2.37
 119  0.496  0.249  0.281-  27 2.18  39 2.21  47 2.24  34 2.35
 120  0.750  0.748  0.283-  40 2.18  28 2.22  35 2.27  48 2.31
 121  0.005  0.251  0.281-  37 2.13  25 2.17  45 2.30  36 2.44
 122  0.245  0.214  0.291-  37 2.16  29 2.20  34 2.24  42 2.29
 123  0.494  0.712  0.291-  38 2.17  30 2.20  35 2.20  43 2.29
 124  0.743  0.215  0.296-  39 2.19  31 2.24  44 2.25  36 2.29
 125  0.994  0.711  0.293-  40 2.18  32 2.21  33 2.24  41 2.31
 126  0.238  0.554  0.329-  42 2.15  38 2.15  33 2.16
 127  0.486  0.051  0.327-  34 2.14  43 2.14  39 2.15
 128  0.732  0.550  0.329-  35 2.17  44 2.25  40 2.25  49 2.34
 129  0.989  0.055  0.328-  36 2.12  41 2.16  37 2.17
 130  0.147  0.003  0.331-  37 2.09  46 2.15  41 2.19
 131  0.397  0.504  0.334-  38 2.10  47 2.18  42 2.23
 132  0.643  0.999  0.334-  39 2.11  48 2.17  43 2.18
 133  0.896  0.501  0.330-  40 2.11  45 2.17  44 2.17
 134  0.137  0.321  0.352-  37 2.17  42 2.26  45 2.29
 135  0.385  0.819  0.351-  38 2.16  43 2.27  46 2.30
 136  0.617  0.308  0.354-  39 2.08  47 2.13  44 2.61
 137  0.890  0.833  0.346-  41 2.17  40 2.21  48 2.27
 138  0.131  0.799  0.356-  41 2.15  33 2.17  46 2.28
 139  0.380  0.298  0.355-  42 2.13  34 2.18  47 2.24
 140  0.628  0.793  0.355-  43 2.14  35 2.15  48 2.35
 141  0.890  0.294  0.355-  44 2.12  36 2.13  45 2.23
 142  0.065  0.544  0.375-  33 2.02  45 2.03
 143  0.316  0.042  0.375-  46 2.02  34 2.03
 144  0.578  0.539  0.377-  49 2.17  47 2.18  35 2.20
 145  0.815  0.041  0.375-  48 2.01  36 2.03
 146  0.798  0.679  0.404- 154 0.97  49 2.15  40 2.28
 147  0.754  0.409  0.417-  49 1.93  44 2.07
 148  0.912  0.627  0.483- 157 1.10
 149  0.660  0.510  0.557- 156 1.09
 150  0.846  0.725  0.516- 157 1.10
 151  0.618  0.563  0.485-  49 1.95
 152  0.688  0.658  0.548- 156 1.09
 153  0.804  0.469  0.518- 158 1.09
 154  0.834  0.727  0.429- 146 0.97
 155  0.906  0.636  0.556- 157 1.10
 156  0.704  0.574  0.538- 149 1.09 152 1.09 158 1.38  49 2.74
 157  0.866  0.640  0.518- 148 1.10 150 1.10 155 1.10 158 1.51
 158  0.788  0.555  0.519- 153 1.09 156 1.38 157 1.51  49 2.64
 
  Warning from LATTYP: Monoclinic adjustement (A1->A3, A2->A1, A3->A2)!
  Warning from LATTYP: Got some problem with cell dimensions!
  Tried to take original basis but could not verify dimensions!
  LATTYP: Found a simple monoclinic cell.
 ALAT       =    18.5584556648
 B/A-ratio  =     1.2917238965
 C/A-ratio  =     1.7011970181
 COS(beta)  =    -0.9496615564
  
  Lattice vectors:
  
 A1 = ( -14.0305058395, -12.1474763861,   0.0000000000)
 A2 = (   0.0000000000,   0.0000000000, -23.9724006653)
 A3 = (  29.1411063110,  12.1474763861,   0.0000000000)


Analysis of symmetry for initial positions (statically):
=====================================================================
 Subroutine PRICEL returns:
 Original cell was already a primitive cell.
 

 Routine SETGRP: Setting up the symmetry group for a 
 simple monoclinic supercell.


 Subroutine GETGRP returns: Found  1 space group operations
 (whereof  1 operations were pure point group operations)
 out of a pool of  4 trial point group operations.


The static configuration has the point symmetry C_1 .


Analysis of symmetry for dynamics (positions and initial velocities):
=====================================================================
 Subroutine PRICEL returns:
 Original cell was already a primitive cell.
 

 Routine SETGRP: Setting up the symmetry group for a 
 simple monoclinic supercell.


 Subroutine GETGRP returns: Found  1 space group operations
 (whereof  1 operations were pure point group operations)
 out of a pool of  4 trial point group operations.


The dynamic configuration has the point symmetry C_1 .


Analysis of constrained symmetry for selective dynamics:
=====================================================================
 Subroutine PRICEL returns:
 Original cell was already a primitive cell.
 

 Routine SETGRP: Setting up the symmetry group for a 
 simple monoclinic supercell.


 Subroutine GETGRP returns: Found  1 space group operations
 (whereof  1 operations were pure point group operations)
 out of a pool of  4 trial point group operations.


The constrained configuration has the point symmetry C_1 .


Analysis of structural, dynamic, and magnetic symmetry:
=====================================================================
 Subroutine PRICEL returns:
 Original cell was already a primitive cell.
 

 Routine SETGRP: Setting up the symmetry group for a 
 simple monoclinic supercell.


 Subroutine GETGRP returns: Found  1 space group operations
 (whereof  1 operations were pure point group operations)
 out of a pool of  4 trial point group operations.


The magnetic configuration has the point symmetry C_1 .


 Subroutine INISYM returns: Found  1 space group operations
 (whereof  1 operations are pure point group operations),
 and found     1 'primitive' translations

 
 
 KPOINTS: Monkhorst Pack                          

Automatic generation of k-mesh.
Space group operators:
 irot       det(A)        alpha          n_x          n_y          n_z        tau_x        tau_y        tau_z
    1     1.000000     0.000000     1.000000     0.000000     0.000000     0.000000     0.000000     0.000000
 
 Subroutine IBZKPT returns following result:
 ===========================================
 
 Found      2 irreducible k-points:
 
 Following reciprocal coordinates:
            Coordinates               Weight
  0.250000  0.250000  0.000000      2.000000
 -0.250000  0.250000  0.000000      2.000000
 
 Following cartesian coordinates:
            Coordinates               Weight
  0.016545  0.022051  0.000000      2.000000
 -0.016545  0.019109  0.000000      2.000000
 


--------------------------------------------------------------------------------------------------------




 Dimension of arrays:
   k-points           NKPTS =      2   k-points in BZ     NKDIM =      2   number of bands    NBANDS=    640
   number of dos      NEDOS =    301   number of ions     NIONS =    158
   non local maximal  LDIM  =      6   non local SUM 2l+1 LMDIM =     18
   total plane-waves  NPLWV = 823200
   max r-space proj   IRMAX =   2561   max aug-charges    IRDMAX=   7978
   dimension x,y,z NGX =    84 NGY =   70 NGZ =  140
   dimension x,y,z NGXF=   168 NGYF=  140 NGZF=  280
   support grid    NGXF=   168 NGYF=  140 NGZF=  280
   ions per type =              49  98   8   3
   NGX,Y,Z   is equivalent  to a cutoff of   9.24,  9.54,  9.71 a.u.
   NGXF,Y,Z  is equivalent  to a cutoff of  18.48, 19.08, 19.42 a.u.

 SYSTEM =  mZrO2_n111_dimer                        
 POSCAR =  Zr   O    H    C                        

 Startparameter for this run:
   NWRITE =      2    write-flag & timer
   PREC   = normal    normal or accurate (medium, high low for compatibility)
   ISTART =      1    job   : 0-new  1-cont  2-samecut
   ICHARG =      1    charge: 1-file 2-atom 10-const
   ISPIN  =      2    spin polarized calculation?
   LNONCOLLINEAR =      F non collinear calculations
   LSORBIT =      F    spin-orbit coupling
   INIWAV =      1    electr: 0-lowe 1-rand  2-diag
   LASPH  =      F    aspherical Exc in radial PAW
   METAGGA=      F    non-selfconsistent MetaGGA calc.

 Electronic Relaxation 1
   ENCUT  =  500.0 eV  36.75 Ry    6.06 a.u.  27.55 22.24 43.71*2*pi/ulx,y,z
   ENINI  =  500.0     initial cutoff
   ENAUG  =  644.9 eV  augmentation charge cutoff
   NELM   =    300;   NELMIN=  2; NELMDL=  0     # of ELM steps 
   EDIFF  = 0.1E-05   stopping-criterion for ELM
   LREAL  =      T    real-space projection
   NLSPLINE    = F    spline interpolate recip. space projectors
   LCOMPAT=      F    compatible to vasp.4.4
   GGA_COMPAT  = T    GGA compatible to vasp.4.4-vasp.4.6
   LMAXPAW     = -100 max onsite density
   LMAXMIX     =    2 max onsite mixed and CHGCAR
   VOSKOWN=      0    Vosko Wilk Nusair interpolation
   ROPT   =   -0.00050  -0.00050  -0.00050  -0.00050
 Ionic relaxation
   EDIFFG = -.5E-01   stopping-criterion for IOM
   NSW    =      0    number of steps for IOM
   NBLOCK =      1;   KBLOCK =      1    inner block; outer block 
   IBRION =     -1    ionic relax: 0-MD 1-quasi-New 2-CG
   NFREE  =      0    steps in history (QN), initial steepest desc. (CG)
   ISIF   =      2    stress and relaxation
   IWAVPR =     10    prediction:  0-non 1-charg 2-wave 3-comb
   ISYM   =      2    0-nonsym 1-usesym 2-fastsym
   LCORR  =      T    Harris-Foulkes like correction to forces

   POTIM  = 0.0000    time-step for ionic-motion
   TEIN   =    0.0    initial temperature
   TEBEG  =    0.0;   TEEND  =   0.0 temperature during run
   SMASS  =  -3.00    Nose mass-parameter (am)
   estimated Nose-frequenzy (Omega)   =  0.10E-29 period in steps =  0.00 mass=  -0.522E-26a.u.
   SCALEE = 1.0000    scale energy and forces
   NPACO  =    256;   APACO  = 16.0  distance and # of slots for P.C.
   PSTRESS=    0.0 pullay stress

  Mass of Ions in am
   POMASS =  91.22 16.00  1.00 12.01
  Ionic Valenz
   ZVAL   =  12.00  6.00  1.00  4.00
  Atomic Wigner-Seitz radii
   RWIGS  =  -1.00 -1.00 -1.00 -1.00
  virtual crystal weights 
   VCA    =   1.00  1.00  1.00  1.00
   NELECT =    1196.0000    total number of electrons
   NUPDOWN=      -1.0000    fix difference up-down

 DOS related values:
   EMIN   =  10.00;   EMAX   =-10.00  energy-range for DOS
   EFERMI =   0.00
   ISMEAR =     0;   SIGMA  =   0.05  broadening in eV -4-tet -1-fermi 0-gaus

 Electronic relaxation 2 (details)
   IALGO  =     38    algorithm
   LDIAG  =      T    sub-space diagonalisation (order eigenvalues)
   LSUBROT=      F    optimize rotation matrix (better conditioning)
   TURBO    =      0    0=normal 1=particle mesh
   IRESTART =      0    0=no restart 2=restart with 2 vectors
   NREBOOT  =      0    no. of reboots
   NMIN     =      0    reboot dimension
   EREF     =   0.00    reference energy to select bands
   IMIX   =      4    mixing-type and parameters
     AMIX     =   0.40;   BMIX     =  1.00
     AMIX_MAG =   1.60;   BMIX_MAG =  1.00
     AMIN     =   0.10
     WC   =   100.;   INIMIX=   1;  MIXPRE=   1;  MAXMIX= -45

 Intra band minimization:
   WEIMIN = 0.0000     energy-eigenvalue tresh-hold
   EBREAK =  0.39E-09  absolut break condition
   DEPER  =   0.30     relativ break condition  

   TIME   =   0.40     timestep for ELM

  volume/ion in A,a.u.               =      27.85       187.94
  Fermi-wavevector in a.u.,A,eV,Ry     =   1.060455  2.003969 15.300624  1.124564
  Thomas-Fermi vector in A             =   2.195836
 
 Write flags
   LWAVE        =      T    write WAVECAR
   LDOWNSAMPLE  =      F    k-point downsampling of WAVECAR
   LCHARG       =      T    write CHGCAR
   LVTOT        =      F    write LOCPOT, total local potential
   LVHAR        =      F    write LOCPOT, Hartree potential only
   LELF         =      F    write electronic localiz. function (ELF)
   LORBIT       =      0    0 simple, 1 ext, 2 COOP (PROOUT), +10 PAW based schemes


 Dipole corrections
   LMONO  =      F    monopole corrections only (constant potential shift)
   LDIPOL =      F    correct potential (dipole corrections)
   IDIPOL =      3    1-x, 2-y, 3-z, 4-all directions 
   EPSILON=  1.0000000 bulk dielectric constant

 LDA+U is selected, type is set to LDAUTYPE =  2
   angular momentum for each species LDAUL =     2   -1   -1   -1
   U (eV)           for each species LDAUU =   4.0  0.0  0.0  0.0
   J (eV)           for each species LDAUJ =   0.0  0.0  0.0  0.0
 Exchange correlation treatment:
   GGA     =    --    GGA type
   LEXCH   =     8    internal setting for exchange type
   VOSKOWN=      0    Vosko Wilk Nusair interpolation
   LHFCALC =     F    Hartree Fock is set to
   LHFONE  =     F    Hartree Fock one center treatment
   AEXX    =    0.0000 exact exchange contribution

 Linear response parameters
   LEPSILON=     F    determine dielectric tensor
   LRPA    =     F    only Hartree local field effects (RPA)
   LNABLA  =     F    use nabla operator in PAW spheres
   LVEL    =     F    velocity operator in full k-point grid
   LINTERFAST=   F  fast interpolation
   KINTER  =     0    interpolate to denser k-point grid
   CSHIFT  =0.1000    complex shift for real part using Kramers Kronig
   OMEGAMAX=  -1.0    maximum frequency
   DEG_THRESHOLD= 0.2000000E-02 threshold for treating states as degnerate
   RTIME   =   -0.100 relaxation time in fs
  (WPLASMAI=    0.000 imaginary part of plasma frequency in eV, 0.658/RTIME)
   DFIELD  = 0.0000000 0.0000000 0.0000000 field for delta impulse in time
 
 Orbital magnetization related:
   ORBITALMAG=     F  switch on orbital magnetization
   LCHIMAG   =     F  perturbation theory with respect to B field
   DQ        =  0.001000  dq finite difference perturbation B field
   LLRAUG    =     F  two centre corrections for induced B field



--------------------------------------------------------------------------------------------------------


 Static calculation
 charge density and potential will be updated during run
 spin polarized calculation
 Variant of blocked Davidson
 Davidson routine will perform the subspace rotation
 perform sub-space diagonalisation
    after iterative eigenvector-optimisation
 modified Broyden-mixing scheme, WC =      100.0
 initial mixing is a Kerker type mixing with AMIX =  0.4000 and BMIX =      1.0000
 Hartree-type preconditioning will be used
 using additional bands           42
 real space projection scheme for non local part
 use partial core corrections
 calculate Harris-corrections to forces 
   (improved forces if not selfconsistent)
 use gradient corrections 
 use of overlap-Matrix (Vanderbilt PP)
 Gauss-broadening in eV      SIGMA  =   0.05


--------------------------------------------------------------------------------------------------------


  energy-cutoff  :      500.00
  volume of cell :     4400.27
      direct lattice vectors                 reciprocal lattice vectors
    15.110600471  0.000000000  0.000000000     0.066178707  0.005884289  0.000000000
    -1.080094632 12.147476386  0.000000000     0.000000000  0.082321625  0.000000000
     0.000000000  0.000000000 23.972400665     0.000000000  0.000000000  0.041714637

  length of vectors
    15.110600471 12.195400238 23.972400665     0.066439793  0.082321625  0.041714637


 
 old parameters found on file WAVECAR:
  energy-cutoff  :      500.00
  volume of cell :     4400.27
      direct lattice vectors                 reciprocal lattice vectors
    15.110600471  0.000000000  0.000000000     0.066178707  0.005884289  0.000000000
    -1.080094632 12.147476386  0.000000000     0.000000000  0.082321625  0.000000000
     0.000000000  0.000000000 23.972400665     0.000000000  0.000000000  0.041714637

  length of vectors

 
 k-points in units of 2pi/SCALE and weight: Monkhorst Pack                          
   0.01654468  0.02205148  0.00000000       0.500
  -0.01654468  0.01910933  0.00000000       0.500
 
 k-points in reciprocal lattice and weights: Monkhorst Pack                          
   0.25000000  0.25000000  0.00000000       0.500
  -0.25000000  0.25000000  0.00000000       0.500
 
 position of ions in fractional coordinates (direct lattice) 
   0.08848000  0.32082999  0.03824000
   0.33847998  0.82083000  0.03824000
   0.58847999  0.32082999  0.03824000
   0.83848001  0.82083000  0.03824000
   0.07020001  0.83354995  0.04873000
   0.32019998  0.33355000  0.04873000
   0.57020004  0.83354995  0.04873000
   0.82020001  0.33355000  0.04873000
   0.23783000  0.06778000  0.05703000
   0.48783004  0.56778001  0.05703000
   0.73783001  0.06778000  0.05703000
   0.98782997  0.56778001  0.05703000
   0.21954999  0.58051001  0.06752000
   0.46955000  0.08051000  0.06752000
   0.71954999  0.58051001  0.06752000
   0.96955000  0.08051000  0.06752000
   0.10602411  0.98286727  0.17089711
   0.35618943  0.48361911  0.17109225
   0.60749623  0.98406218  0.17122958
   0.85533768  0.48245568  0.17294926
   0.08914723  0.49445866  0.18249592
   0.33899849  0.99463142  0.18217958
   0.58890952  0.49267297  0.18214242
   0.83864364  0.99518417  0.18271330
   0.00442461  0.23002046  0.19146151
   0.25326021  0.72968687  0.19130613
   0.50352588  0.22884100  0.19078862
   0.75666722  0.72967237  0.19102407
   0.23947123  0.24174852  0.20068368
   0.48838979  0.74251609  0.20012784
   0.74084122  0.24507110  0.20372456
   0.98875813  0.74037365  0.20201530
   0.12248328  0.64109480  0.31406918
   0.37113340  0.13937970  0.31298147
   0.62259822  0.64494043  0.30633019
   0.87355310  0.13819845  0.31402066
   0.10938616  0.16090709  0.31243888
   0.35776558  0.65944137  0.31265214
   0.60511899  0.15701186  0.31321176
   0.85794984  0.66164260  0.31752446
   0.02659903  0.88885601  0.32424079
   0.27526824  0.38840724  0.32535225
   0.52410416  0.88617056  0.32480722
   0.78090349  0.38166508  0.33323621
   0.01074725  0.40682797  0.33583084
   0.25847776  0.90656862  0.33607163
   0.50690647  0.40014935  0.33454293
   0.75848393  0.90635024  0.33623135
   0.70044731  0.54589447  0.42419125
   0.02440000  0.17254999  0.00000000
   0.27439999  0.67255002  0.00000000
   0.52439999  0.17254999  0.00000000
   0.77439999  0.67255002  0.00000000
   0.21455000  0.43156997  0.01581000
   0.46455001  0.93156996  0.01581000
   0.71455008  0.43156997  0.01581000
   0.96455004  0.93156996  0.01581000
   0.20673000  0.89092997  0.02490000
   0.45673000  0.39092998  0.02490000
   0.70672997  0.89092997  0.02490000
   0.95673004  0.39092998  0.02490000
   0.19748000  0.22610000  0.04418000
   0.44748002  0.72610003  0.04418000
   0.69748003  0.22610000  0.04418000
   0.94747999  0.72610003  0.04418000
   0.11054000  0.67523994  0.06158000
   0.36054002  0.17523999  0.06158000
   0.61053998  0.67523994  0.06158000
   0.86053999  0.17523999  0.06158000
   0.10129000  0.01041000  0.08086000
   0.35129000  0.51041000  0.08086000
   0.60128998  0.01041000  0.08086000
   0.85128994  0.51041000  0.08086000
   0.09348000  0.46976000  0.08995000
   0.34348000  0.96975995  0.08995000
   0.59348001  0.46976000  0.08995000
   0.84347996  0.96975995  0.08995000
   0.03362000  0.22878000  0.10576000
   0.28361999  0.72877998  0.10576000
   0.53361997  0.22878000  0.10576000
   0.78362002  0.72877998  0.10576000
   0.04511246  0.83295907  0.13358427
   0.29599543  0.33385221  0.13339583
   0.54639481  0.83355643  0.13347856
   0.79565359  0.33257446  0.13400960
   0.23135089  0.09325835  0.14610033
   0.48156420  0.59350015  0.14667118
   0.73171009  0.09367833  0.14689264
   0.98145683  0.59328540  0.14692909
   0.22547973  0.55212076  0.16048568
   0.47614828  0.05081161  0.16062609
   0.72502616  0.55197491  0.16048038
   0.97513111  0.05216000  0.16073282
   0.21489842  0.88998268  0.18082918
   0.46419890  0.38927119  0.18026185
   0.71496642  0.88885681  0.18088364
   0.96505255  0.39001257  0.18153396
   0.12966666  0.33480928  0.19247647
   0.37905863  0.83480229  0.19343093
   0.62811910  0.33488862  0.19442730
   0.87938556  0.83596974  0.19417583
   0.11755396  0.67066852  0.21444559
   0.36669893  0.16898821  0.21267677
   0.61834554  0.66976227  0.21427332
   0.86774334  0.16968134  0.21622555
   0.11550831  0.13005606  0.22384775
   0.36382629  0.63071930  0.22406685
   0.61486684  0.13121223  0.22468815
   0.86384440  0.63131426  0.22515152
   0.04739406  0.89320014  0.23969166
   0.29690092  0.39549782  0.24052682
   0.54731088  0.89323526  0.24005382
   0.79627363  0.39392053  0.24115946
   0.06789675  0.49215924  0.26874222
   0.31447956  0.99212253  0.26832810
   0.56025958  0.49313882  0.26846090
   0.81012175  0.99308031  0.26841985
   0.25059113  0.75013722  0.28255194
   0.49620156  0.24882835  0.28085153
   0.74970380  0.74759144  0.28299679
   0.00507800  0.25104559  0.28134507
   0.24534805  0.21388605  0.29108636
   0.49406317  0.71179679  0.29060412
   0.74348981  0.21467621  0.29593627
   0.99447034  0.71122129  0.29272275
   0.23840163  0.55424682  0.32895225
   0.48550380  0.05117208  0.32671658
   0.73215834  0.55023897  0.32867555
   0.98913866  0.05536793  0.32837317
   0.14652599  0.00347579  0.33084004
   0.39736460  0.50445727  0.33430444
   0.64302608  0.99946352  0.33369869
   0.89603534  0.50128053  0.33030092
   0.13714751  0.32104192  0.35159182
   0.38528175  0.81902575  0.35111143
   0.61665590  0.30845011  0.35367928
   0.89038721  0.83309265  0.34567661
   0.13148186  0.79927710  0.35642008
   0.38021161  0.29843817  0.35548354
   0.62798044  0.79331311  0.35503179
   0.89043124  0.29350007  0.35528596
   0.06547720  0.54400637  0.37496016
   0.31557796  0.04229878  0.37461231
   0.57769595  0.53949209  0.37704164
   0.81542895  0.04066691  0.37500459
   0.79829831  0.67883714  0.40417521
   0.75351044  0.40864638  0.41661398
   0.91182412  0.62746430  0.48294581
   0.66000941  0.50951472  0.55721448
   0.84569164  0.72497453  0.51565013
   0.61797229  0.56324975  0.48526819
   0.68823188  0.65754961  0.54795935
   0.80432154  0.46929546  0.51806751
   0.83442589  0.72713662  0.42917999
   0.90577589  0.63649068  0.55609201
   0.70362008  0.57402796  0.53752803
   0.86612350  0.64049556  0.51763971
   0.78791380  0.55484763  0.51942683
 
 position of ions in cartesian coordinates  (Angst):
   0.99045921  3.89727473  0.91670460
   4.22806168  9.97101307  0.91670460
   8.54575920  3.89727473  0.91670460
  11.78336239  9.97101307  0.91670460
   0.16045142 10.12552833  1.16817511
   4.47814847  4.05179071  1.16817511
   7.71575212 10.12552833  1.16817511
  12.03344917  4.05179071  1.16817511
   3.52054525  0.82335597  1.36714601
   6.75814868  6.89709425  1.36714601
  11.07584571  0.82335597  1.36714601
  14.31344795  6.89709425  1.36714601
   2.69052649  7.05173159  1.61861647
   7.00822400  0.97799331  1.61861647
  10.24582672  7.05173159  1.61861647
  14.56352424  0.97799331  1.61861647
   0.54049835 11.93935701  4.09681407
   4.85988172  5.87475175  4.10149200
   8.11675252 11.95387206  4.10478420
  12.40356816  5.86061895  4.14600886
   0.81300607  6.00642485  4.37486530
   4.04817463 12.08226173  4.36728193
   8.36664297  5.98473325  4.36639111
  11.59751597 12.08897623  4.38007636
  -0.18158535  2.79416815  4.58979199
   3.03878294  8.86385404  4.58606710
   7.36140853  2.77984066  4.57366126
  10.64558083  8.86367793  4.57930556
   3.35744278  2.93663443  4.81086957
   6.57787536  9.01969673  4.79754485
  10.92985565  2.97699538  4.88376669
  14.14105546  8.99367142  4.84279177
   1.15835291  7.78768398  7.52899224
   5.45750533  1.69311162  7.50291727
   8.71123621  7.83439859  7.34347016
  13.05064454  1.67876243  7.52782919
   1.47909573  1.95461512  7.48990990
   4.69379361  8.01054853  7.49502228
   8.97412365  1.90729786  7.50843787
  12.24950068  8.03728784  7.61182362
  -0.55812131 10.79735737  7.77283020
   3.73995176  4.71816777  7.79947445
   6.96238053 10.76473597  7.78640870
  11.38768623  4.63626749  7.98847201
  -0.27701528  4.94193311  8.05067147
   2.92657425 11.01252094  8.05644378
   7.22746200  4.86080475  8.01979708
  10.48220365 11.00986809  8.06027258
   9.99456173  6.63124017 10.16888262
   0.18232835  2.09604693  0.00000000
   3.41993094  8.16978550  0.00000000
   7.73762846  2.09604693  0.00000000
  10.97523117  8.16978550  0.00000000
   2.77584291  5.24248600  0.37900365
   6.01344586 11.31622410  0.37900365
  10.33114434  5.24248600  0.37900365
  13.56874656 11.31622410  0.37900365
   2.16152573 10.82255077  0.59691280
   6.47922326  4.74881268  0.59691280
   9.71682548 10.82255077  0.59691280
  14.03452396  4.74881268  0.59691280
   2.73983193  2.74654436  1.05910064
   5.97743511  8.82028293  1.05910064
  10.29513263  2.74654436  1.05910064
  13.53273487  8.82028293  1.05910064
   0.94100273  8.20246124  1.47622036
   5.25870037  2.12872362  1.47622036
   8.49630260  8.20246124  1.47622036
  12.81400013  2.12872362  1.47622036
   1.51930892  0.12645522  1.93840825
   4.75691175  6.20019341  1.93840825
   9.07460880  0.12645522  1.93840825
  12.31221104  6.20019341  1.93840825
   0.90515363  5.70639848  2.15631746
   4.14275646 11.78013610  2.15631746
   8.46045399  5.70639848  2.15631746
  11.69805622 11.78013610  2.15631746
   0.26091433  2.77909971  2.53532100
   3.49851704  8.85283756  2.53532100
   7.81621408  2.77909971  2.53532100
  11.05381775  8.85283756  2.53532100
  -0.21799822 10.11835064  3.20233575
   4.11207676  4.05546182  3.19781827
   7.35603377 10.12560710  3.19980157
  11.66359159  4.03994043  3.21253181
   3.39512305  1.13285358  3.50237557
   6.63568793  7.20952900  3.51606032
  10.95539739  1.13795529  3.52136926
  14.18959762  7.20692044  3.52224313
   2.81079151  6.70687392  3.84722692
   7.14000504  0.61723279  3.85059301
  10.35939553  6.70510215  3.84710005
  14.67847882  0.63361238  3.85315150
   2.28597859 10.81104358  4.33490966
   6.59387436  4.72866262  4.32130925
   9.84352245 10.79736712  4.33621499
  14.16127303  4.73766844  4.35180485
   1.59771540  4.06708780  4.61412311
   4.82613807 10.14074109  4.63700380
   9.12954530  4.06805165  4.66088917
  12.38511749 10.15492271  4.65486077
   1.05192542  8.14693004  5.14077571
   5.35851772  2.05278026  5.09837264
   8.62016577  8.13592140  5.13664589
  12.92885097  2.06120005  5.18344548
   1.60492710  1.57985287  5.36616807
   4.81639720  7.66164782  5.37142036
   9.14928554  1.59389744  5.38631424
  12.37132844  7.66887502  5.39742242
  -0.24858798 10.85012762  5.74598459
   4.05917608  4.80430046  5.76600525
   7.30541748 10.85055428  5.75466647
  11.60670128  4.78514035  5.78117131
   0.49438212  5.97849269  6.44239615
   3.68038877 12.05178501  6.43246866
   7.93322210  5.99039213  6.43565218
  11.16880538 12.06341956  6.43466828
   2.97636324  9.11227412  6.77344836
   7.22914531  3.02263655  6.73268540
  10.52100511  9.08134939  6.78411253
  -0.19442140  3.04957037  6.74451678
   3.47633918  2.59817573  6.97803885
   6.69678324  8.64653475  6.96647842
  11.00270677  2.60777424  7.09430278
  14.25885772  8.63954382  7.01726708
   3.00375278  6.73270022  7.88577519
   7.28098327  0.62161165  7.83218077
  10.46904198  6.68401490  7.87914203
  14.88667654  0.67258066  7.87189310
   2.21034153  0.04222203  7.93103003
   5.45955608  6.12788273  8.01407986
   8.63699506 12.14095954  7.99955872
  12.99820167  6.08929345  7.91810588
   1.72562555  3.89984910  8.42850003
   4.93721333  9.94909592  8.41698399
   8.98488562  3.74689041  8.47854149
  12.55446643 10.11997330  8.28669829
   1.12347495  9.70919973  8.54424507
   5.42288423  3.62527061  8.52179377
   8.63230828  9.63675233  8.51096432
  13.13794291  3.56528514  8.51705727
   0.40182141  6.60830454  8.98869510
   4.72288576  0.51382341  8.98035646
   8.14663012  6.55346742  9.03859320
  12.27769691  0.49400035  8.98976023
  11.32955842  8.24615812  9.68905006
  10.94461838  4.96402227  9.98723715
  13.10048914  7.62210775 11.57737036
   9.42281446  6.18931801 13.35776886
  11.99586744  8.80661102 12.36137154
   8.72956927  6.84206309 11.63304345
   9.68938109  7.98756842 13.13590103
  11.64689792  5.70075554 12.41932183
  11.82329984  8.83287493 10.28847471
  12.99934742  7.73175552 13.33086053
  10.01211734  6.97299104 12.88583723
  12.39585034  7.78040473 12.40906642
  11.30656270  6.73999843 12.45190810
 


--------------------------------------------------------------------------------------------------------


 k-point  1 :   0.2500 0.2500 0.0000  plane waves:  111683
 k-point  2 :  -0.2500 0.2500 0.0000  plane waves:  111725

 maximum and minimum number of plane-waves per node :      7001     6957

 maximum number of plane-waves:    111725
 maximum index in each direction: 
   IXMAX=   27   IYMAX=   21   IZMAX=   43
   IXMIN=  -27   IYMIN=  -22   IZMIN=  -43


 real space projection operators:
  total allocation   :      22018.38 KBytes
  max/ min on nodes  :       1603.36       1255.84


 parallel 3D FFT for wavefunctions:
    minimum data exchange during FFTs selected (reduces bandwidth)
 parallel 3D FFT for charge:
    minimum data exchange during FFTs selected (reduces bandwidth)


 total amount of memory used by VASP MPI-rank0    91908. kBytes
=======================================================================

   base      :      30000. kBytes
   nonlr-proj:       8717. kBytes
   fftplans  :       4220. kBytes
   grid      :      12288. kBytes
   one-center:        311. kBytes
   wavefun   :      36372. kBytes
 
     INWAV:  cpu time   37.2748: real time   37.2710
 Broyden mixing: mesh for mixing (old mesh)
   NGX = 55   NGY = 45   NGZ = 87
  (NGX  =168   NGY  =140   NGZ  =280)
  gives a total of 215325 points

 initial charge density was supplied:
 number of electron    1196.0000000 magnetization      -0.0000000
 keeping initial charge density in first step


--------------------------------------------------------------------------------------------------------


 Maximum index for non-local projection operator          418
 Maximum index for augmentation-charges          480 (set IRDMAX)


--------------------------------------------------------------------------------------------------------


 First call to EWALD:  gamma=   0.108
 Maximum number of real-space cells 3x 4x 2
 Maximum number of reciprocal cells 3x 2x 4

    FEWALD:  cpu time    0.0169: real time    0.0170


--------------------------------------- Iteration      1(   1)  ---------------------------------------


    POTLOK:  cpu time    0.4583: real time    0.5191
    SETDIJ:  cpu time    0.0768: real time    0.0774
     EDDAV:  cpu time   25.5715: real time   25.5681
       DOS:  cpu time    0.0113: real time    0.0114
    CHARGE:  cpu time    1.0668: real time    1.0671
    MIXING:  cpu time    0.0182: real time    0.0188
    --------------------------------------------
      LOOP:  cpu time   27.2034: real time   27.2623

 eigenvalue-minimisations  :  6304
 total energy-change (2. order) :-0.1327898E+04  (-0.1307330E+00)
 number of electron    1196.0000000 magnetization      -0.0000000
 augmentation part       73.6613420 magnetization       0.0000000

 Broyden mixing:
  rms(total) = 0.94782E-01    rms(broyden)= 0.94704E-01
  rms(prec ) = 0.96004E-01
  weight for this iteration     100.00

 Free energy of the ion-electron system (eV)
  ---------------------------------------------------
  alpha Z        PSCENC =      2113.54737298
  Ewald energy   TEWEN  =    391426.63493998
  -Hartree energ DENC   =   -487957.38654575
  -exchange      EXHF   =         0.00000000
  -V(xc)+E(xc)   XCENC  =      5278.76334289
  PAW double counting   =    128907.71300071  -128228.48974593
  entropy T*S    EENTRO =        -0.00000000
  eigenvalues    EBANDS =    -18707.58298908
  atomic energy  EATOM  =    105838.90241102
  Solvation  Ediel_sol  =         0.00000000
  ---------------------------------------------------
  free energy    TOTEN  =     -1327.89821318 eV

  energy without entropy =    -1327.89821318  energy(sigma->0) =    -1327.89821318


--------------------------------------------------------------------------------------------------------




--------------------------------------- Iteration      1(   2)  ---------------------------------------


    POTLOK:  cpu time    0.4477: real time    0.4477
    SETDIJ:  cpu time    0.0749: real time    0.0749
     EDDAV:  cpu time   25.7572: real time   25.7362
       DOS:  cpu time    0.0020: real time    0.0020
    CHARGE:  cpu time    1.0702: real time    1.0695
    MIXING:  cpu time    0.0098: real time    0.0120
    --------------------------------------------
      LOOP:  cpu time   27.3617: real time   27.3422

 eigenvalue-minimisations  :  6240
 total energy-change (2. order) :-0.1747639E+01  (-0.1166146E+00)
 number of electron    1196.0000000 magnetization      -0.0000000
 augmentation part       73.5880010 magnetization       0.0000000

 Broyden mixing:
  rms(total) = 0.40367E-01    rms(broyden)= 0.40251E-01
  rms(prec ) = 0.42434E-01
  weight for this iteration     100.00

 eigenvalues of (default mixing * dielectric matrix)
  average eigenvalue GAMMA=   0.7380
  0.7380

 Free energy of the ion-electron system (eV)
  ---------------------------------------------------
  alpha Z        PSCENC =      2113.54737298
  Ewald energy   TEWEN  =    391426.63493998
  -Hartree energ DENC   =   -487958.26259728
  -exchange      EXHF   =         0.00000000
  -V(xc)+E(xc)   XCENC  =      5278.85360463
  PAW double counting   =    128764.18980085  -128083.91670033
  entropy T*S    EENTRO =        -0.00000000
  eigenvalues    EBANDS =    -18709.59468452
  atomic energy  EATOM  =    105838.90241102
  Solvation  Ediel_sol  =         0.00000000
  ---------------------------------------------------
  free energy    TOTEN  =     -1329.64585267 eV

  energy without entropy =    -1329.64585267  energy(sigma->0) =    -1329.64585267


--------------------------------------------------------------------------------------------------------




--------------------------------------- Iteration      1(   3)  ---------------------------------------


    POTLOK:  cpu time    0.4208: real time    0.4493
    SETDIJ:  cpu time    0.0750: real time    0.0750
     EDDAV:  cpu time   27.2111: real time   27.1891
       DOS:  cpu time    0.0020: real time    0.0020
    CHARGE:  cpu time    1.0645: real time    1.0637
    MIXING:  cpu time    0.0082: real time    0.0082
    --------------------------------------------
      LOOP:  cpu time   28.7816: real time   28.7873

 eigenvalue-minimisations  :  6720
 total energy-change (2. order) :-0.9850014E-02  (-0.4035200E-02)
 number of electron    1196.0000000 magnetization      -0.0000000
 augmentation part       73.6188986 magnetization       0.0000000

 Broyden mixing:
  rms(total) = 0.27527E-01    rms(broyden)= 0.27510E-01
  rms(prec ) = 0.27944E-01
  weight for this iteration     100.00

 eigenvalues of (default mixing * dielectric matrix)
  average eigenvalue GAMMA=   0.6944
  0.6944  0.6944

 Free energy of the ion-electron system (eV)
  ---------------------------------------------------
  alpha Z        PSCENC =      2113.54737298
  Ewald energy   TEWEN  =    391426.63493998
  -Hartree energ DENC   =   -487955.90126484
  -exchange      EXHF   =         0.00000000
  -V(xc)+E(xc)   XCENC  =      5278.66414215
  PAW double counting   =    128791.35633268  -128110.33823821
  entropy T*S    EENTRO =        -0.00000000
  eigenvalues    EBANDS =    -18712.52139844
  atomic energy  EATOM  =    105838.90241102
  Solvation  Ediel_sol  =         0.00000000
  ---------------------------------------------------
  free energy    TOTEN  =     -1329.65570268 eV

  energy without entropy =    -1329.65570268  energy(sigma->0) =    -1329.65570268


--------------------------------------------------------------------------------------------------------




--------------------------------------- Iteration      1(   4)  ---------------------------------------


    POTLOK:  cpu time    0.4262: real time    0.4488
    SETDIJ:  cpu time    0.0749: real time    0.0751
     EDDAV:  cpu time   23.6839: real time   23.6620
       DOS:  cpu time    0.0019: real time    0.0019
    CHARGE:  cpu time    1.0683: real time    1.0675
    MIXING:  cpu time    0.0088: real time    0.0094
    --------------------------------------------
      LOOP:  cpu time   25.2639: real time   25.2648

 eigenvalue-minimisations  :  5568
 total energy-change (2. order) :-0.3530318E-04  (-0.2052922E-03)
 number of electron    1196.0000000 magnetization      -0.0000000
 augmentation part       73.6153110 magnetization       0.0000000

 Broyden mixing:
  rms(total) = 0.22303E-01    rms(broyden)= 0.22301E-01
  rms(prec ) = 0.22605E-01
  weight for this iteration     100.00

 eigenvalues of (default mixing * dielectric matrix)
  average eigenvalue GAMMA=   0.6882
  0.7745  0.7745  0.5155

 Free energy of the ion-electron system (eV)
  ---------------------------------------------------
  alpha Z        PSCENC =      2113.54737298
  Ewald energy   TEWEN  =    391426.63493998
  -Hartree energ DENC   =   -487956.68751574
  -exchange      EXHF   =         0.00000000
  -V(xc)+E(xc)   XCENC  =      5278.73112889
  PAW double counting   =    128820.53612698  -128139.46389868
  entropy T*S    EENTRO =        -0.00000000
  eigenvalues    EBANDS =    -18711.85630341
  atomic energy  EATOM  =    105838.90241102
  Solvation  Ediel_sol  =         0.00000000
  ---------------------------------------------------
  free energy    TOTEN  =     -1329.65573799 eV

  energy without entropy =    -1329.65573799  energy(sigma->0) =    -1329.65573799


--------------------------------------------------------------------------------------------------------




--------------------------------------- Iteration      1(   5)  ---------------------------------------


    POTLOK:  cpu time    0.4251: real time    0.4490
    SETDIJ:  cpu time    0.0750: real time    0.0750
     EDDAV:  cpu time   27.5389: real time   27.5147
       DOS:  cpu time    0.0021: real time    0.0021
    CHARGE:  cpu time    1.0723: real time    1.0713
    MIXING:  cpu time    0.0089: real time    0.0089
    --------------------------------------------
      LOOP:  cpu time   29.1223: real time   29.1210

 eigenvalue-minimisations  :  6784
 total energy-change (2. order) :-0.5933165E-05  (-0.2022303E-04)
 number of electron    1196.0000000 magnetization      -0.0000000
 augmentation part       73.6211484 magnetization       0.0000000

 Broyden mixing:
  rms(total) = 0.18747E-01    rms(broyden)= 0.18747E-01
  rms(prec ) = 0.19002E-01
  weight for this iteration     100.00

 eigenvalues of (default mixing * dielectric matrix)
  average eigenvalue GAMMA=   0.7275
  0.9077  0.9077  0.5474  0.5474

 Free energy of the ion-electron system (eV)
  ---------------------------------------------------
  alpha Z        PSCENC =      2113.54737298
  Ewald energy   TEWEN  =    391426.63493998
  -Hartree energ DENC   =   -487956.76769659
  -exchange      EXHF   =         0.00000000
  -V(xc)+E(xc)   XCENC  =      5278.73508068
  PAW double counting   =    128838.44679921  -128157.33822206
  entropy T*S    EENTRO =        -0.00000000
  eigenvalues    EBANDS =    -18711.81642914
  atomic energy  EATOM  =    105838.90241102
  Solvation  Ediel_sol  =         0.00000000
  ---------------------------------------------------
  free energy    TOTEN  =     -1329.65574392 eV

  energy without entropy =    -1329.65574392  energy(sigma->0) =    -1329.65574392


--------------------------------------------------------------------------------------------------------




--------------------------------------- Iteration      1(   6)  ---------------------------------------


    POTLOK:  cpu time    0.4440: real time    0.4441
    SETDIJ:  cpu time    0.0752: real time    0.0751
     EDDAV:  cpu time   27.1409: real time   27.1180
       DOS:  cpu time    0.0019: real time    0.0019
    CHARGE:  cpu time    1.0682: real time    1.0674
    MIXING:  cpu time    0.0100: real time    0.0100
    --------------------------------------------
      LOOP:  cpu time   28.7402: real time   28.7165

 eigenvalue-minimisations  :  6656
 total energy-change (2. order) :-0.1094263E-04  (-0.2372050E-05)
 number of electron    1196.0000000 magnetization      -0.0000000
 augmentation part       73.6225540 magnetization       0.0000000

 Broyden mixing:
  rms(total) = 0.16192E-01    rms(broyden)= 0.16192E-01
  rms(prec ) = 0.16423E-01
  weight for this iteration     100.00

 eigenvalues of (default mixing * dielectric matrix)
  average eigenvalue GAMMA=   0.7971
  1.1281  1.1281  0.5233  0.6030  0.6030

 Free energy of the ion-electron system (eV)
  ---------------------------------------------------
  alpha Z        PSCENC =      2113.54737298
  Ewald energy   TEWEN  =    391426.63493998
  -Hartree energ DENC   =   -487956.91673692
  -exchange      EXHF   =         0.00000000
  -V(xc)+E(xc)   XCENC  =      5278.74308095
  PAW double counting   =    128852.77527248  -128171.65483693
  entropy T*S    EENTRO =        -0.00000000
  eigenvalues    EBANDS =    -18711.68725842
  atomic energy  EATOM  =    105838.90241102
  Solvation  Ediel_sol  =         0.00000000
  ---------------------------------------------------
  free energy    TOTEN  =     -1329.65575486 eV

  energy without entropy =    -1329.65575486  energy(sigma->0) =    -1329.65575486


--------------------------------------------------------------------------------------------------------




--------------------------------------- Iteration      1(   7)  ---------------------------------------


    POTLOK:  cpu time    0.4266: real time    0.4519
    SETDIJ:  cpu time    0.0749: real time    0.0749
     EDDAV:  cpu time   27.0875: real time   27.0645
       DOS:  cpu time    0.0021: real time    0.0021
    CHARGE:  cpu time    1.0277: real time    1.0266
    MIXING:  cpu time    0.0099: real time    0.0099
    --------------------------------------------
      LOOP:  cpu time   28.6287: real time   28.6299

 eigenvalue-minimisations  :  6656
 total energy-change (2. order) :-0.7276278E-05  (-0.2333509E-05)
 number of electron    1196.0000000 magnetization      -0.0000000
 augmentation part       73.6237939 magnetization       0.0000000

 Broyden mixing:
  rms(total) = 0.12961E-01    rms(broyden)= 0.12961E-01
  rms(prec ) = 0.13143E-01
  weight for this iteration     100.00

 eigenvalues of (default mixing * dielectric matrix)
  average eigenvalue GAMMA=   0.8609
  1.3458  1.3458  0.6872  0.6872  0.5496  0.5496

 Free energy of the ion-electron system (eV)
  ---------------------------------------------------
  alpha Z        PSCENC =      2113.54737298
  Ewald energy   TEWEN  =    391426.63493998
  -Hartree energ DENC   =   -487956.98742849
  -exchange      EXHF   =         0.00000000
  -V(xc)+E(xc)   XCENC  =      5278.74839494
  PAW double counting   =    128869.97579284  -128188.84278410
  entropy T*S    EENTRO =        -0.00000000
  eigenvalues    EBANDS =    -18711.63446130
  atomic energy  EATOM  =    105838.90241102
  Solvation  Ediel_sol  =         0.00000000
  ---------------------------------------------------
  free energy    TOTEN  =     -1329.65576214 eV

  energy without entropy =    -1329.65576214  energy(sigma->0) =    -1329.65576214


--------------------------------------------------------------------------------------------------------




--------------------------------------- Iteration      1(   8)  ---------------------------------------


    POTLOK:  cpu time    0.4202: real time    0.4457
    SETDIJ:  cpu time    0.0751: real time    0.0750
     EDDAV:  cpu time   24.9550: real time   24.9328
       DOS:  cpu time    0.0022: real time    0.0022
    CHARGE:  cpu time    1.0272: real time    1.0260
    MIXING:  cpu time    0.0100: real time    0.0100
    --------------------------------------------
      LOOP:  cpu time   26.4898: real time   26.4917

 eigenvalue-minimisations  :  5920
 total energy-change (2. order) :-0.5966387E-05  (-0.1700717E-05)
 number of electron    1196.0000000 magnetization      -0.0000000
 augmentation part       73.6250610 magnetization       0.0000000

 Broyden mixing:
  rms(total) = 0.10610E-01    rms(broyden)= 0.10610E-01
  rms(prec ) = 0.10751E-01
  weight for this iteration     100.00

 eigenvalues of (default mixing * dielectric matrix)
  average eigenvalue GAMMA=   0.9105
  1.5716  1.5716  0.7653  0.7653  0.5331  0.5834  0.5834

 Free energy of the ion-electron system (eV)
  ---------------------------------------------------
  alpha Z        PSCENC =      2113.54737298
  Ewald energy   TEWEN  =    391426.63493998
  -Hartree energ DENC   =   -487957.03858883
  -exchange      EXHF   =         0.00000000
  -V(xc)+E(xc)   XCENC  =      5278.75167218
  PAW double counting   =    128882.67226076  -128201.52973764
  entropy T*S    EENTRO =        -0.00000000
  eigenvalues    EBANDS =    -18711.59609854
  atomic energy  EATOM  =    105838.90241102
  Solvation  Ediel_sol  =         0.00000000
  ---------------------------------------------------
  free energy    TOTEN  =     -1329.65576811 eV

  energy without entropy =    -1329.65576811  energy(sigma->0) =    -1329.65576811


--------------------------------------------------------------------------------------------------------




--------------------------------------- Iteration      1(   9)  ---------------------------------------


    POTLOK:  cpu time    0.4221: real time    0.4480
    SETDIJ:  cpu time    0.0749: real time    0.0749
     EDDAV:  cpu time   19.7206: real time   19.6944
       DOS:  cpu time    0.0020: real time    0.0020
    CHARGE:  cpu time    1.0769: real time    1.0757
    MIXING:  cpu time    0.0111: real time    0.0111
    --------------------------------------------
      LOOP:  cpu time   21.3075: real time   21.3061

 eigenvalue-minimisations  :  4224
 total energy-change (2. order) :-0.5103793E-05  (-0.4854125E-06)
 number of electron    1196.0000000 magnetization      -0.0000000
 augmentation part       73.6262253 magnetization       0.0000000

 Broyden mixing:
  rms(total) = 0.90380E-02    rms(broyden)= 0.90380E-02
  rms(prec ) = 0.91611E-02
  weight for this iteration     100.00

 eigenvalues of (default mixing * dielectric matrix)
  average eigenvalue GAMMA=   1.0340
  2.0131  2.0131  0.8998  0.8998  0.6516  0.6516  0.5713  0.5713

 Free energy of the ion-electron system (eV)
  ---------------------------------------------------
  alpha Z        PSCENC =      2113.54737298
  Ewald energy   TEWEN  =    391426.63493998
  -Hartree energ DENC   =   -487957.06854199
  -exchange      EXHF   =         0.00000000
  -V(xc)+E(xc)   XCENC  =      5278.75327655
  PAW double counting   =    128891.20376750  -128210.05829921
  entropy T*S    EENTRO =        -0.00000000
  eigenvalues    EBANDS =    -18711.57070004
  atomic energy  EATOM  =    105838.90241102
  Solvation  Ediel_sol  =         0.00000000
  ---------------------------------------------------
  free energy    TOTEN  =     -1329.65577321 eV

  energy without entropy =    -1329.65577321  energy(sigma->0) =    -1329.65577321


--------------------------------------------------------------------------------------------------------




--------------------------------------- Iteration      1(  10)  ---------------------------------------


    POTLOK:  cpu time    0.4240: real time    0.4504
    SETDIJ:  cpu time    0.0752: real time    0.0752
     EDDAV:  cpu time   25.9052: real time   25.8546
       DOS:  cpu time    0.0021: real time    0.0021
    CHARGE:  cpu time    1.0837: real time    1.0825
    MIXING:  cpu time    0.0114: real time    0.0114
    --------------------------------------------
      LOOP:  cpu time   27.5016: real time   27.4762

 eigenvalue-minimisations  :  6176
 total energy-change (2. order) :-0.5568989E-05  (-0.1862860E-05)
 number of electron    1196.0000000 magnetization       0.0000000
 augmentation part       73.6272843 magnetization       0.0000000

 Broyden mixing:
  rms(total) = 0.58050E-02    rms(broyden)= 0.58050E-02
  rms(prec ) = 0.58876E-02
  weight for this iteration     100.00

 eigenvalues of (default mixing * dielectric matrix)
  average eigenvalue GAMMA=   1.1240
  2.4000  2.4000  1.0657  1.0657  0.6972  0.6972  0.6024  0.6024  0.5849

 Free energy of the ion-electron system (eV)
  ---------------------------------------------------
  alpha Z        PSCENC =      2113.54737298
  Ewald energy   TEWEN  =    391426.63493998
  -Hartree energ DENC   =   -487957.12648734
  -exchange      EXHF   =         0.00000000
  -V(xc)+E(xc)   XCENC  =      5278.75647982
  PAW double counting   =    128908.29328949  -128227.14158713
  entropy T*S    EENTRO =        -0.00000000
  eigenvalues    EBANDS =    -18711.52219760
  atomic energy  EATOM  =    105838.90241102
  Solvation  Ediel_sol  =         0.00000000
  ---------------------------------------------------
  free energy    TOTEN  =     -1329.65577878 eV

  energy without entropy =    -1329.65577878  energy(sigma->0) =    -1329.65577878


--------------------------------------------------------------------------------------------------------




--------------------------------------- Iteration      1(  11)  ---------------------------------------


    POTLOK:  cpu time    0.4238: real time    0.4553
[...]
   -4.6254650410E-03    1.6907940224E-04   -4.2626459293E-04
    5.5443878413E-04   -8.5592000396E-04   -1.5244929805E-04
    6.7103348479E-04   -1.4194518632E-03    2.9999056708E-03
   -1.8034344663E-04    6.8837749487E-04   -1.6617410885E-03
   -3.8523403723E-03   -6.4905028093E-04   -3.4171224785E-03
    2.8972083824E-03   -6.4432100453E-03   -1.5562996725E-02
   -6.1615416990E-04    1.3595601031E-03   -1.3314586127E-04
   -8.7832323886E-04    1.9626724414E-03   -1.5930405340E-03
   -3.9481119610E-03    4.2198089365E-04   -2.0612390713E-04
    3.7739713706E-04   -4.7306064367E-03   -4.2832804148E-03
    6.7989675131E-03    3.4620655001E-03   -6.4840922458E-03
   -4.4461611384E-03   -3.0562818680E-03   -2.2815377489E-03
   -1.0099106113E-02    5.9672756702E-03   -7.7845355561E-03
    3.5923889634E-03   -9.1092141642E-04    6.2042669026E-03
   -1.1253213815E-03   -2.8875053644E-03    3.4788858540E-03
   -4.0081537820E-03   -2.7819837274E-05   -2.0287986954E-03
   -5.3707843202E-03   -6.9909168169E-03   -7.7800509345E-04
   -4.5626959909E-03    1.8910931673E-02   -3.6520248678E-02
   -5.9861107023E-03    1.5420891545E-03    2.4406442968E-03
   -6.5216960867E-03   -4.6423027969E-03   -1.0133237374E-03
   -4.4193590256E-03    2.8731658904E-03    1.0870826449E-03
    3.6283797480E-03   -1.2529640887E-03    9.1042404106E-04
   -1.7330823184E-02   -4.7952875524E-03    1.4972058125E-02
   -6.9480971434E-03   -3.4658609058E-03    3.1617601072E-03
   -9.4854430197E-03   -2.3450820367E-03   -2.7710767482E-03
   -7.0901759394E-03   -1.5217513738E-03    1.8544426077E-03
   -1.1205492464E-02    1.9881475794E-02    4.3001354723E-02
   -3.8757595394E-03   -3.1165740313E-03    6.5518206230E-04
   -2.3335213947E-03   -4.4430693453E-03   -1.1727519070E-03
   -9.1271324301E-03   -4.1485111332E-03   -2.5452072294E-02
   -8.3696998124E-03    4.3944320487E-03    9.5076404057E-04
   -2.0266283026E-01    4.1027820130E-02   -4.2604332491E-03
    0.0000000000E+00    0.0000000000E+00    0.0000000000E+00
    0.0000000000E+00    0.0000000000E+00    0.0000000000E+00
    0.0000000000E+00    0.0000000000E+00    0.0000000000E+00
    0.0000000000E+00    0.0000000000E+00    0.0000000000E+00
    0.0000000000E+00    0.0000000000E+00    0.0000000000E+00
    0.0000000000E+00    0.0000000000E+00    0.0000000000E+00
    0.0000000000E+00    0.0000000000E+00    0.0000000000E+00
    0.0000000000E+00    0.0000000000E+00    0.0000000000E+00
    0.0000000000E+00    0.0000000000E+00    0.0000000000E+00
    0.0000000000E+00    0.0000000000E+00    0.0000000000E+00
    0.0000000000E+00    0.0000000000E+00    0.0000000000E+00
    0.0000000000E+00    0.0000000000E+00    0.0000000000E+00
    0.0000000000E+00    0.0000000000E+00    0.0000000000E+00
    0.0000000000E+00    0.0000000000E+00    0.0000000000E+00
    0.0000000000E+00    0.0000000000E+00    0.0000000000E+00
    0.0000000000E+00    0.0000000000E+00    0.0000000000E+00
    0.0000000000E+00    0.0000000000E+00    0.0000000000E+00
    0.0000000000E+00    0.0000000000E+00    0.0000000000E+00
    0.0000000000E+00    0.0000000000E+00    0.0000000000E+00
    0.0000000000E+00    0.0000000000E+00    0.0000000000E+00
    0.0000000000E+00    0.0000000000E+00    0.0000000000E+00
    0.0000000000E+00    0.0000000000E+00    0.0000000000E+00
    0.0000000000E+00    0.0000000000E+00    0.0000000000E+00
    0.0000000000E+00    0.0000000000E+00    0.0000000000E+00
    0.0000000000E+00    0.0000000000E+00    0.0000000000E+00
    0.0000000000E+00    0.0000000000E+00    0.0000000000E+00
    0.0000000000E+00    0.0000000000E+00    0.0000000000E+00
    0.0000000000E+00    0.0000000000E+00    0.0000000000E+00
    0.0000000000E+00    0.0000000000E+00    0.0000000000E+00
    0.0000000000E+00    0.0000000000E+00    0.0000000000E+00
    0.0000000000E+00    0.0000000000E+00    0.0000000000E+00
    0.0000000000E+00    0.0000000000E+00    0.0000000000E+00
   -1.9621693677E-03   -1.9094664119E-03   -3.5739708882E-04
   -3.9008196760E-03   -6.4342290883E-05   -3.3228183709E-03
   -6.4162590991E-03    3.9134628476E-03   -6.1371550910E-03
    3.9321620875E-03   -1.4158739818E-03    1.6250402822E-03
   -2.5561184833E-03   -2.0423316269E-03   -3.2643546589E-03
   -5.5360095407E-03   -1.8666043719E-03   -2.5108880722E-03
    9.2654637171E-05   -5.6704150005E-05   -2.8293985430E-03
   -1.3177344404E-03    1.8800278429E-03   -1.9656933517E-03
   -3.5358306402E-04   -1.6237804587E-03   -2.9136686390E-03
   -8.9886064597E-04    9.7567384997E-04    4.9565490326E-05
    1.3567561316E-03   -2.0463717128E-03    4.0790718471E-04
   -3.0968858214E-04   -3.0589194529E-04   -2.5680953403E-03
   -2.9131633557E-03   -6.2027187308E-04   -1.9514412354E-03
   -1.5034608426E-03   -7.6034533777E-03   -1.6742060360E-02
    1.1872807536E-03    7.8880311838E-04   -3.3941192324E-03
    2.1969061335E-02    1.7091594500E-02    1.4138619159E-02
   -3.2436600860E-03   -2.4053546755E-03    2.7599455606E-03
   -5.5639667102E-03    3.6786960554E-03   -5.4364523524E-03
    1.4467950637E-02   -1.0229426062E-02    2.2342208724E-02
    9.9091807491E-04    6.3879085478E-04   -1.5645468054E-03
   -3.5046570252E-03   -3.2302978020E-06    3.1850838966E-03
   -2.2061570936E-02    1.4759372363E-02   -1.9840893967E-02
   -2.7233022254E-03    1.0839261943E-02   -2.7911250132E-02
   -2.3159854956E-04   -1.2030824441E-03   -2.0059815889E-03
   -4.7599345508E-03   -2.6739753763E-03   -1.7474648273E-03
   -1.7503159935E-02    5.2057248261E-02    1.5127450771E-02
   -1.4302262102E-04   -2.9775613023E-03    1.7160238179E-03
   -3.4506529686E-05   -1.5258197321E-03    4.4830590394E-03
   -3.0924781553E-03   -2.4484689818E-03    2.9192158215E-03
   -2.8394307934E-03   -9.1844523237E-04   -4.0861932843E-03
   -9.5566383567E-04   -1.1015425617E-03   -6.5778612465E-03
    5.3105697172E-03   -1.9510818706E-03    1.2095167023E-02
   -1.2656627946E-02    4.8294127872E-04    1.3862760869E-04
   -5.7518298113E-03    2.8102954534E-04   -3.8586197503E-03
   -2.0989881586E-02   -1.0599546337E-03   -3.5938730513E-02
    6.9654597331E-04   -1.1340071917E-03   -1.3859393957E-03
   -5.2839580202E-03   -5.2552572034E-04   -3.0675602384E-04
   -1.6000916498E-03   -1.7386826274E-03   -5.4007541454E-03
   -6.5957211483E-03    1.8375695548E-02   -1.1183197087E-02
   -1.0426092253E-02   -1.0593942783E-03    1.7017476076E-03
   -9.0731984224E-03   -2.0496347151E-03   -1.0916682601E-03
   -6.4611624773E-03    1.5782012226E-03   -1.7119287511E-02
   -2.9324885327E-03    8.5394697719E-03    1.0467065462E-02
   -1.1482924600E-02    9.3134130018E-04    8.0905898725E-03
   -4.0636315161E-03   -2.9832282330E-03   -7.9129486585E-03
    6.5238150471E-03    1.1766007946E-03    1.8720924056E-02
   -3.2337042532E-03    4.0665674667E-02   -3.5341526662E-02
   -7.1196851674E-03   -4.9923356053E-03   -2.9473375512E-03
   -6.4401954974E-03   -2.7510267740E-03    1.5293773594E-03
   -9.6023314597E-04   -6.1869738596E-03   -1.2275705278E-02
   -4.5754277573E-03    3.3039198028E-03   -4.5287581567E-03
   -8.0042364261E-03   -5.1316769612E-04    1.0226310093E-02
   -9.0297599471E-03   -2.0789168614E-03   -4.6686333317E-04
   -4.2812441409E-03   -1.2054090381E-03   -5.0588134521E-03
    1.4234480165E-03    1.9068123103E-02   -7.4661782659E-03
   -1.5725448729E-02   -1.6262938346E-02    3.1833867569E-02
   -2.7042972956E-03   -1.1808224982E-03   -1.7050150112E-03
   -1.0190245726E-02   -4.7068705790E-03   -1.6250608144E-02
   -6.7792367332E-02    1.9813701173E-02    6.4493784711E-02
   -6.9470665780E-03   -4.3559873721E-02    3.1960780466E-02
   -7.1075131666E-04   -5.2091476047E-03    4.5837974967E-04
   -2.3167955977E-03   -1.4067449124E-03   -2.8919590149E-03
    1.2086813122E-02    1.9108917153E-02    1.6365606155E-02
   -4.0500426705E-03   -2.4516794816E-03   -8.3213256310E-04
   -5.8479208408E-02   -4.8602620012E-02    5.2090380429E-02
   -3.4376803839E-02    1.2402411516E-01    4.9057392105E-02
    4.6845335410E-02   -4.7303181580E-02   -4.2327049078E-02
    5.5958978217E-02   -2.2408949640E-02   -9.9500752545E-02
    8.3299860477E-02   -2.0335994820E-02    1.8779065453E-02
   -4.8046917120E-01   -1.7496658196E-01   -4.1240282325E-01
    1.2339236510E-01    2.3483386240E-02    1.0836225730E-02
    1.3902746931E-01   -3.1135135318E-02    1.0177627131E-01
   -6.6462768500E-02    2.0977430436E-02   -8.3772487642E-03
    2.0414569436E-01    4.2864327295E-02   -2.1257660739E-02
    3.1861600854E-01    2.3137124281E-02    2.6339903677E-01
    1.4567704009E-01    1.5308795798E-03    2.3736050753E-02
    1.7461218000E-01   -1.3919058505E-02    3.3707634264E-01
 Dimer: -----------------
 Dimer: Itr    1 Rot    0

 Dimer: Central Point
 Dimer: F0      0.212351

 Dimer: Projection
 Dimer: N*F0 -1.695339331907037E-003
 Dimer: F0sq  4.509299656376212E-002
 Dimer: Feffsq   2.874175450310999E-006
 Dimer: Feff
    0.0000000000E+00    0.0000000000E+00    0.0000000000E+00
    0.0000000000E+00    0.0000000000E+00    0.0000000000E+00
    0.0000000000E+00    0.0000000000E+00    0.0000000000E+00
    0.0000000000E+00    0.0000000000E+00    0.0000000000E+00
    0.0000000000E+00    0.0000000000E+00    0.0000000000E+00
    0.0000000000E+00    0.0000000000E+00    0.0000000000E+00
    0.0000000000E+00    0.0000000000E+00    0.0000000000E+00
    0.0000000000E+00    0.0000000000E+00    0.0000000000E+00
    0.0000000000E+00    0.0000000000E+00    0.0000000000E+00
    0.0000000000E+00    0.0000000000E+00    0.0000000000E+00
    0.0000000000E+00    0.0000000000E+00    0.0000000000E+00
    0.0000000000E+00    0.0000000000E+00    0.0000000000E+00
    0.0000000000E+00    0.0000000000E+00    0.0000000000E+00
    0.0000000000E+00    0.0000000000E+00    0.0000000000E+00
    0.0000000000E+00    0.0000000000E+00    0.0000000000E+00
    0.0000000000E+00    0.0000000000E+00    0.0000000000E+00
   -2.5517890278E-06   -5.0932221544E-06   -1.5674633717E-06
   -7.8417328123E-06    2.8664696083E-07   -7.2266313019E-07
    9.3996187786E-07   -1.4510748477E-06   -2.5845329110E-07
    1.1376294598E-06   -2.4064525734E-06    5.0858580757E-06
   -3.0574333832E-07    1.1670334422E-06   -2.8172150268E-06
   -6.5310241530E-06   -1.1003604696E-06   -5.7931821397E-06
    4.9117513234E-06   -1.0923427413E-05   -2.6384560470E-05
   -1.0445903987E-06    2.3049157169E-06   -2.2572741549E-07
   -1.4890559330E-06    3.3273957855E-06   -2.7007442746E-06
   -6.6933894942E-06    7.1540080631E-07   -3.4944996700E-07
    6.3981621020E-07   -8.0199831559E-06   -7.2616137568E-06
    1.1526557041E-05    5.8693758119E-06   -1.0992736616E-05
   -7.5377518539E-06   -5.1814348602E-06   -3.8679806829E-06
   -1.7121411810E-05    1.0116557148E-05   -1.3197429309E-05
    6.0903183051E-06   -1.5443209055E-06    1.0518337706E-05
   -1.9078015991E-06   -4.8953014153E-06    5.8978920195E-06
   -6.7951807549E-06   -4.7164064338E-08   -3.4395022248E-06
   -9.1053019012E-06   -1.1851976246E-05   -1.3189826353E-06
   -7.7353179729E-06    3.2060446268E-05   -6.1914213994E-05
   -1.0148488919E-05    2.6143643969E-06    4.1377202715E-06
   -1.1056487886E-05   -7.8702785222E-06   -1.7179275880E-06
   -7.4923131779E-06    4.8709911411E-06    1.8429739649E-06
    6.1513348978E-06   -2.1241993010E-06    1.5434776855E-06
   -2.9381626198E-05   -8.1296395953E-06    2.5382719019E-05
   -1.1779382369E-05   -5.8758103125E-06    5.3602562678E-06
   -1.6081044632E-05   -3.9757098133E-06   -4.6979154029E-06
   -1.2020254140E-05   -2.5798849574E-06    3.1439094916E-06
   -1.8997112107E-05    3.3705847890E-05    7.2901887987E-05
   -6.5707275881E-06   -5.2836505360E-06    1.1107559198E-06
   -3.9561106023E-06   -7.5325102154E-06   -1.9882124345E-06
   -1.5473586596E-05   -7.0331340929E-06   -4.3149899238E-05
   -1.4189481288E-05    7.4500534935E-06    1.6118676733E-06
   -3.4358226725E-04    6.9556077168E-05   -7.2228800581E-06
    0.0000000000E+00    0.0000000000E+00    0.0000000000E+00
    0.0000000000E+00    0.0000000000E+00    0.0000000000E+00
    0.0000000000E+00    0.0000000000E+00    0.0000000000E+00
    0.0000000000E+00    0.0000000000E+00    0.0000000000E+00
    0.0000000000E+00    0.0000000000E+00    0.0000000000E+00
    0.0000000000E+00    0.0000000000E+00    0.0000000000E+00
    0.0000000000E+00    0.0000000000E+00    0.0000000000E+00
    0.0000000000E+00    0.0000000000E+00    0.0000000000E+00
    0.0000000000E+00    0.0000000000E+00    0.0000000000E+00
    0.0000000000E+00    0.0000000000E+00    0.0000000000E+00
    0.0000000000E+00    0.0000000000E+00    0.0000000000E+00
    0.0000000000E+00    0.0000000000E+00    0.0000000000E+00
    0.0000000000E+00    0.0000000000E+00    0.0000000000E+00
    0.0000000000E+00    0.0000000000E+00    0.0000000000E+00
    0.0000000000E+00    0.0000000000E+00    0.0000000000E+00
    0.0000000000E+00    0.0000000000E+00    0.0000000000E+00
    0.0000000000E+00    0.0000000000E+00    0.0000000000E+00
    0.0000000000E+00    0.0000000000E+00    0.0000000000E+00
    0.0000000000E+00    0.0000000000E+00    0.0000000000E+00
    0.0000000000E+00    0.0000000000E+00    0.0000000000E+00
    0.0000000000E+00    0.0000000000E+00    0.0000000000E+00
    0.0000000000E+00    0.0000000000E+00    0.0000000000E+00
    0.0000000000E+00    0.0000000000E+00    0.0000000000E+00
    0.0000000000E+00    0.0000000000E+00    0.0000000000E+00
    0.0000000000E+00    0.0000000000E+00    0.0000000000E+00
    0.0000000000E+00    0.0000000000E+00    0.0000000000E+00
    0.0000000000E+00    0.0000000000E+00    0.0000000000E+00
    0.0000000000E+00    0.0000000000E+00    0.0000000000E+00
    0.0000000000E+00    0.0000000000E+00    0.0000000000E+00
    0.0000000000E+00    0.0000000000E+00    0.0000000000E+00
    0.0000000000E+00    0.0000000000E+00    0.0000000000E+00
    0.0000000000E+00    0.0000000000E+00    0.0000000000E+00
   -3.3265429049E-06   -3.2371935110E-06   -6.0590934178E-07
   -6.6132130234E-06   -1.0908201644E-07   -5.6333046769E-06
   -1.0877736414E-05    6.6346474895E-06   -1.0404560412E-05
    6.6663490463E-06   -2.4003868504E-06    2.7549947063E-06
   -4.3334882017E-06   -3.4624451359E-06   -5.5341888465E-06
   -9.3854147161E-06   -3.1645278088E-06   -4.2568073068E-06
    1.5708105068E-07   -9.6132775785E-08   -4.7967906356E-06
   -2.2340070258E-06    3.1872851471E-06   -3.3325172536E-06
   -5.9944327553E-07   -2.7528588780E-06   -4.9396570438E-06
   -1.5238738070E-06    1.6540982530E-06    8.4030325254E-08
    2.3001620337E-06   -3.4692944524E-06    6.9154109400E-07
   -5.2502723394E-07   -5.1859064616E-07   -4.3537930385E-06
   -4.9388004172E-06   -1.0515713029E-06   -3.3083550803E-06
   -2.5488763004E-06   -1.2890433569E-05   -2.8383473425E-05
    2.0128437596E-06    1.3372889517E-06   -5.7541838318E-06
    3.7245013766E-05    2.8976052401E-05    2.3969757159E-05
   -5.4991045231E-06   -4.0778923885E-06    4.6790442628E-06
   -9.4328116052E-06    6.2366381128E-06   -9.2166314990E-06
    2.4528085767E-05   -1.7342348346E-05    3.7877625211E-05
    1.6799423871E-06    1.0829672610E-06   -2.6524377358E-06
   -5.9415828996E-06   -5.4764509175E-09    5.3997980053E-06
   -3.7401848931E-05    2.5022144481E-05   -3.3637047922E-05
   -4.6169213754E-06    1.8376227101E-05   -4.7319040151E-05
   -3.9263813028E-07   -2.0396329870E-06   -3.4008194867E-06
   -8.0697042612E-06   -4.5332956280E-06   -2.9625458528E-06
   -2.9673795470E-05    8.8254700487E-05    2.5646162283E-05
   -2.4247187477E-07   -5.0479767889E-06    2.9092426730E-06
   -5.8500276984E-08   -2.5867822052E-06    7.6003063167E-06
   -5.2427998497E-06   -4.1509857678E-06    4.9490614005E-06
   -4.8137987042E-06   -1.5570763266E-06   -6.9274841926E-06
   -1.6201744887E-06   -1.8674884306E-06   -1.1151706891E-05
    9.0032177163E-06   -3.3077458350E-06    2.0505412380E-05
   -2.1457279166E-05    8.1874934481E-07    2.3502083750E-07
   -9.7513033095E-06    4.7644044164E-07   -6.5416698295E-06
   -3.5584971825E-05   -1.7969827805E-06   -6.0928343377E-05
    1.1808817850E-06   -1.9225269947E-06   -2.3496375692E-06
   -8.9581018597E-06   -8.9094442362E-07   -5.2005555251E-07
   -2.7126983085E-06   -2.9476570439E-06   -9.1561109246E-06
   -1.1181985485E-05    3.1153039413E-05   -1.8959313878E-05
   -1.7675764274E-05   -1.7960327880E-06    2.8850396521E-06
   -1.5382150152E-05   -3.4748263485E-06   -1.8507481387E-06
   -1.0953862878E-05    2.6755866063E-06   -2.9023001451E-05
   -4.9715631498E-06    1.4477298978E-05    1.7745227767E-05
   -1.9467453720E-05    1.5789395376E-06    1.3716295229E-05
   -6.8892343396E-06   -5.0575841594E-06   -1.3415133092E-05
    1.1060080243E-05    1.9947376050E-06    3.1738318882E-05
   -5.4822260082E-06    6.8942117721E-05   -5.9915880199E-05
   -1.2070282295E-05   -8.4637029097E-06   -4.9967372749E-06
   -1.0918316732E-05   -4.6639238931E-06    2.5928135907E-06
   -1.6279210202E-06   -1.0489020130E-05   -2.0811485985E-05
   -7.7569026372E-06    5.6012651911E-06   -7.6777818277E-06
   -1.3569896835E-05   -8.6999337909E-07    1.7337065721E-05
   -1.5308507196E-05   -3.5244695229E-06   -7.9149177134E-07
   -7.2581615815E-06   -2.0435773533E-06   -8.5764054181E-06
    2.4132274093E-06    3.2326939082E-05   -1.2657705673E-05
   -2.6659971742E-05   -2.7571199030E-05    5.3969207776E-05
   -4.5847015704E-06   -2.0018948252E-06   -2.8905790100E-06
   -1.7275924381E-05   -7.9797428227E-06   -2.7550295154E-05
   -1.1493106674E-04    3.3590946909E-05    1.0933884988E-04
   -1.1777635211E-05   -7.3848767212E-05    5.4184368202E-05
   -1.2049646623E-06   -8.8312728199E-06    7.7710921856E-07
   -3.9277547007E-06   -2.3849099799E-06   -4.9028518642E-06
    2.0491249683E-05    3.2396098839E-05    2.7745255805E-05
   -6.8661966352E-06   -4.1564286544E-06   -1.4107470636E-06
   -9.9142102112E-05   -8.2397933340E-05    8.8310870755E-05
   -5.8280347653E-05    2.1026296053E-04    8.3168926356E-05
    7.9418739636E-05   -8.0194944256E-05   -7.1758711105E-05
    9.4869456744E-05   -3.7990773711E-05   -1.6868753934E-04
    1.4122152981E-04   -3.4476411872E-05    3.1836888279E-05
   -8.1455828370E-04   -2.9662772816E-04   -6.9916272684E-04
    2.0919192981E-04    3.9812308339E-05    1.8371079689E-05
    2.3569873694E-04   -5.2784619509E-05    1.7254531581E-04
   -1.1267694554E-04    3.5563862900E-05   -1.4202279323E-05
    3.4609622509E-04    7.2669579999E-05   -3.6038948355E-05
    5.4016225105E-04    3.9225276821E-05    4.4655074702E-04
    2.4697201582E-04    2.5953603640E-06    4.0240660425E-05
    2.9602689658E-04   -2.3597527346E-05    5.7145878153E-04
 
 stress matrix after NEB project (eV)
    -54.76259    -24.62328      0.91563
    -24.62328    -72.41020      2.06232
      0.91563      2.06232     -9.11053
  FORCES: max atom, RMS     0.048180    0.016894
  FORCE total and by dimension    0.212351    0.040994
  Stress total and by dimension   97.713741   72.410203
 OPT: skip step - force has converged
 writing wavefunctions
     LOOP+:  cpu time  574.0691: real time  649.6101
    4ORBIT:  cpu time    0.0000: real time    0.0000

 total amount of memory used by VASP MPI-rank0    91908. kBytes
=======================================================================

   base      :      30000. kBytes
   nonlr-proj:       8717. kBytes
   fftplans  :       4220. kBytes
   grid      :      12288. kBytes
   one-center:        311. kBytes
   wavefun   :      36372. kBytes
 
  
  
 General timing and accounting informations for this job:
 ========================================================
  
                  Total CPU time used (sec):      894.895
                            User time (sec):      646.567
                          System time (sec):      248.327
                         Elapsed time (sec):      978.141
  
                   Maximum memory used (kb):      904944.
                   Average memory used (kb):           0.
  
                          Minor page faults:        57134
                          Major page faults:           53
                 Voluntary context switches:        15711
