       N       E                     dE             d eps       ncg     rms          rms(c)
DAV:   1    -0.137858764648E+04   -0.13786E+04   -0.13471E+00  6336   0.982E-01    0.950E-01
DAV:   2    -0.138034036536E+04   -0.17527E+01   -0.12006E+00  6176   0.953E-01    0.411E-01
DAV:   3    -0.138035014221E+04   -0.97768E-02   -0.42812E-02  6720   0.229E-01    0.277E-01
DAV:   4    -0.138035018718E+04   -0.44971E-04   -0.21808E-03  5600   0.578E-02    0.224E-01
DAV:   5    -0.138035019197E+04   -0.47875E-05   -0.19830E-04  6816   0.183E-02    0.188E-01
DAV:   6    -0.138035020301E+04   -0.11043E-04   -0.24100E-05  7104   0.734E-03    0.161E-01
DAV:   7    -0.138035020728E+04   -0.42766E-05   -0.23352E-05  6784   0.816E-03    0.130E-01
DAV:   8    -0.138035021097E+04   -0.36839E-05   -0.17820E-05  7072   0.663E-03    0.106E-01
DAV:   9    -0.138035021474E+04   -0.37751E-05   -0.56122E-06  7424   0.357E-03    0.898E-02
DAV:  10    -0.138035021822E+04   -0.34761E-05   -0.11228E-05  6560   0.569E-03    0.636E-02
DAV:  11    -0.138035022155E+04   -0.33328E-05   -0.40117E-05  6400   0.105E-02    0.200E-02
DAV:  12    -0.138035022282E+04   -0.12696E-05   -0.63841E-06  7104   0.324E-03    0.134E-02
DAV:  13    -0.138035022300E+04   -0.17801E-06   -0.94231E-07  6304   0.157E-03    0.675E-03
DAV:  14    -0.138035022302E+04   -0.19878E-07   -0.64796E-07  7360   0.114E-03    0.306E-03
DAV:  15    -0.138035022298E+04    0.36744E-07   -0.70648E-08  5184   0.398E-04    0.154E-03
DAV:  16    -0.138035022293E+04    0.48341E-07   -0.25077E-08  3232   0.304E-04    0.562E-04
DAV:  17    -0.138035022291E+04    0.25611E-07   -0.23825E-08  3280   0.200E-04    0.459E-04
DAV:  18    -0.138035022290E+04    0.73778E-08   -0.51585E-09  2944   0.113E-04
   1 F= -.13995634E+04 E0= -.13995634E+04  d E =-.139956E+04  mag=     0.0000
       N       E                     dE             d eps       ncg     rms          rms(c)
DAV:   1    -0.138034925444E+04    0.96846E-03   -0.58231E-01  5120   0.870E-01    0.126E-01
DAV:   2    -0.138034960984E+04   -0.35539E-03   -0.54089E-03  5568   0.796E-02    0.857E-02
DAV:   3    -0.138034954041E+04    0.69430E-04   -0.58720E-04  6016   0.381E-02    0.368E-02
DAV:   4    -0.138034954584E+04   -0.54366E-05   -0.13009E-04  6112   0.165E-02    0.168E-02
DAV:   5    -0.138034954163E+04    0.42119E-05   -0.42969E-05  5920   0.983E-03    0.766E-03
DAV:   6    -0.138034954113E+04    0.50246E-06   -0.54352E-06  5920   0.305E-03    0.432E-03
DAV:   7    -0.138034954095E+04    0.17436E-06   -0.34292E-06  6144   0.273E-03    0.207E-03
DAV:   8    -0.138034954094E+04    0.18757E-07   -0.47041E-07  5712   0.115E-03    0.126E-03
DAV:   9    -0.138034954102E+04   -0.80516E-07   -0.19217E-07  5584   0.738E-04    0.539E-04
DAV:  10    -0.138034954112E+04   -0.10106E-06   -0.94495E-08  5488   0.566E-04    0.494E-04
DAV:  11    -0.138034954123E+04   -0.10943E-06   -0.43008E-08  4896   0.362E-04    0.292E-04
DAV:  12    -0.138034954131E+04   -0.85842E-07   -0.13249E-08  3392   0.222E-04    0.126E-04
DAV:  13    -0.138034954143E+04   -0.11505E-06   -0.13335E-08  3616   0.217E-04    0.143E-04
DAV:  14    -0.138034954150E+04   -0.72891E-07   -0.83389E-09  3520   0.134E-04    0.104E-04
DAV:  15    -0.138034954155E+04   -0.46668E-07   -0.37286E-09  3136   0.908E-05    0.526E-05
DAV:  16    -0.138034954159E+04   -0.44776E-07   -0.24429E-09  3072   0.623E-05    0.541E-05
DAV:  17    -0.138034954161E+04   -0.21071E-07   -0.75862E-10  3072   0.439E-05    0.348E-05
DAV:  18    -0.138034954163E+04   -0.21508E-07   -0.11552E-09  3072   0.486E-05    0.298E-05
DAV:  19    -0.138034954164E+04   -0.61846E-08    0.13193E-10  2944   0.284E-05
   2 F= -.13995628E+04 E0= -.13995628E+04  d E =0.657452E-03  mag=     0.0000
       N       E                     dE             d eps       ncg     rms          rms(c)
DAV:   1    -0.138034915250E+04    0.38913E-03   -0.11618E+00  5120   0.122E+00    0.139E-01
DAV:   2    -0.138035000456E+04   -0.85206E-03   -0.11008E-02  5536   0.108E-01    0.874E-02
DAV:   3    -0.138034991228E+04    0.92278E-04   -0.85738E-04  6304   0.362E-02    0.480E-02
DAV:   4    -0.138034989212E+04    0.20161E-04   -0.25736E-04  5504   0.234E-02    0.170E-02
DAV:   5    -0.138034988953E+04    0.25879E-05   -0.66384E-05  5472   0.115E-02    0.105E-02
DAV:   6    -0.138034988989E+04   -0.36346E-06   -0.14579E-05  6944   0.422E-03    0.648E-03
DAV:   7    -0.138034988945E+04    0.44260E-06   -0.29579E-06  6592   0.246E-03    0.365E-03
DAV:   8    -0.138034988955E+04   -0.98880E-07   -0.13853E-06  6336   0.168E-03    0.206E-03
DAV:   9    -0.138034988959E+04   -0.37355E-07   -0.41660E-07  6016   0.921E-04    0.846E-04
DAV:  10    -0.138034988974E+04   -0.14712E-06   -0.86834E-08  4768   0.441E-04    0.326E-04
DAV:  11    -0.138034988989E+04   -0.15080E-06   -0.28693E-08  4384   0.303E-04    0.305E-04
DAV:  12    -0.138034989002E+04   -0.13363E-06   -0.18718E-08  3808   0.262E-04    0.124E-04
DAV:  13    -0.138034989011E+04   -0.86555E-07   -0.11127E-08  3360   0.171E-04    0.131E-04
DAV:  14    -0.138034989018E+04   -0.74418E-07   -0.41284E-09  3104   0.109E-04    0.875E-05
DAV:  15    -0.138034989024E+04   -0.58266E-07   -0.51496E-09  3200   0.106E-04    0.493E-05
DAV:  16    -0.138034989027E+04   -0.32538E-07   -0.17152E-09  3072   0.604E-05    0.436E-05
DAV:  17    -0.138034989029E+04   -0.17317E-07   -0.59642E-10  3072   0.389E-05    0.275E-05
DAV:  18    -0.138034989030E+04   -0.88039E-08   -0.31625E-10  3072   0.370E-05
   3 F= -.13995632E+04 E0= -.13995632E+04  d E =-.399787E-03  mag=     0.0000
       N       E                     dE             d eps       ncg     rms          rms(c)
DAV:   1    -0.138034924389E+04    0.64640E-03   -0.11543E+00  5120   0.123E+00    0.131E-01
DAV:   2    -0.138034989094E+04   -0.64705E-03   -0.10492E-02  5696   0.114E-01    0.920E-02
DAV:   3    -0.138034976021E+04    0.13074E-03   -0.10648E-03  6144   0.463E-02    0.468E-02
DAV:   4    -0.138034975060E+04    0.96106E-05   -0.21028E-04  5888   0.215E-02    0.194E-02
DAV:   5    -0.138034974725E+04    0.33464E-05   -0.58422E-05  5632   0.128E-02    0.892E-03
DAV:   6    -0.138034974685E+04    0.39683E-06   -0.70144E-06  5696   0.377E-03    0.503E-03
DAV:   7    -0.138034974665E+04    0.19795E-06   -0.45014E-06  5792   0.336E-03    0.316E-03
DAV:   8    -0.138034974656E+04    0.97614E-07   -0.93916E-07  6304   0.152E-03    0.167E-03
DAV:   9    -0.138034974660E+04   -0.44529E-07   -0.43904E-07  5952   0.129E-03    0.737E-04
DAV:  10    -0.138034974678E+04   -0.17391E-06   -0.16786E-07  5856   0.814E-04    0.655E-04
DAV:  11    -0.138034974693E+04   -0.15929E-06   -0.76607E-08  5408   0.617E-04    0.316E-04
DAV:  12    -0.138034974715E+04   -0.21928E-06   -0.41378E-08  4640   0.562E-04    0.234E-04
DAV:  13    -0.138034974730E+04   -0.14286E-06   -0.43600E-08  4640   0.349E-04    0.168E-04
DAV:  14    -0.138034974740E+04   -0.10052E-06   -0.89569E-09  3680   0.151E-04    0.111E-04
DAV:  15    -0.138034974750E+04   -0.10632E-06   -0.48020E-09  3232   0.116E-04    0.577E-05
DAV:  16    -0.138034974755E+04   -0.49593E-07   -0.31574E-09  3232   0.703E-05    0.377E-05
DAV:  17    -0.138034974760E+04   -0.50873E-07   -0.22283E-09  3104   0.581E-05    0.252E-05
DAV:  18    -0.138034974763E+04   -0.22061E-07   -0.11024E-09  3072   0.496E-05    0.212E-05
DAV:  19    -0.138034974764E+04   -0.14203E-07   -0.74469E-10  3136   0.499E-05    0.191E-05
DAV:  20    -0.138034974765E+04   -0.73051E-08   -0.34540E-10  3072   0.461E-05
   4 F= -.13995630E+04 E0= -.13995630E+04  d E =0.134131E-03  mag=     0.0000
       N       E                     dE             d eps       ncg     rms          rms(c)
DAV:   1    -0.138034859022E+04    0.11574E-02   -0.11652E+00  5120   0.121E+00    0.173E-01
DAV:   2    -0.138034951725E+04   -0.92703E-03   -0.12468E-02  5600   0.114E-01    0.118E-01
DAV:   3    -0.138034933564E+04    0.18161E-03   -0.11726E-03  6176   0.465E-02    0.599E-02
DAV:   4    -0.138034932101E+04    0.14630E-04   -0.31850E-04  6048   0.255E-02    0.220E-02
DAV:   5    -0.138034931635E+04    0.46610E-05   -0.66260E-05  5728   0.121E-02    0.118E-02
DAV:   6    -0.138034931446E+04    0.18822E-05   -0.97262E-06  5632   0.436E-03    0.602E-03
DAV:   7    -0.138034931355E+04    0.91236E-06   -0.47268E-06  6880   0.361E-03    0.277E-03
DAV:   8    -0.138034931319E+04    0.35783E-06   -0.10598E-06  6016   0.192E-03    0.151E-03
DAV:   9    -0.138034931316E+04    0.34313E-07   -0.59635E-07  6688   0.161E-03    0.100E-03
DAV:  10    -0.138034931346E+04   -0.29491E-06   -0.31788E-07  6240   0.158E-03    0.768E-04
DAV:  11    -0.138034931395E+04   -0.49066E-06   -0.41065E-07  5600   0.122E-03    0.424E-04
DAV:  12    -0.138034931437E+04   -0.42410E-06   -0.14798E-07  5088   0.506E-04    0.437E-04
DAV:  13    -0.138034931462E+04   -0.25299E-06   -0.24539E-08  4336   0.243E-04    0.232E-04
DAV:  14    -0.138034931501E+04   -0.39073E-06   -0.27769E-08  4160   0.229E-04    0.117E-04
DAV:  15    -0.138034931522E+04   -0.20330E-06   -0.12487E-08  3904   0.139E-04    0.781E-05
DAV:  16    -0.138034931539E+04   -0.17461E-06   -0.76596E-09  3360   0.113E-04    0.520E-05
DAV:  17    -0.138034931547E+04   -0.80487E-07   -0.51392E-09  3360   0.956E-05    0.405E-05
DAV:  18    -0.138034931552E+04   -0.47730E-07   -0.33771E-09  3136   0.874E-05    0.236E-05
DAV:  19    -0.138034931555E+04   -0.29933E-07   -0.35216E-09  3232   0.838E-05    0.209E-05
DAV:  20    -0.138034931555E+04   -0.46566E-08   -0.67517E-10  3136   0.481E-05
   5 F= -.13995624E+04 E0= -.13995624E+04  d E =0.586108E-03  mag=    -0.0000
       N       E                     dE             d eps       ncg     rms          rms(c)
DAV:   1    -0.138034841045E+04    0.90510E-03   -0.11803E+00  5120   0.106E+00    0.108E-01
DAV:   2    -0.138034868782E+04   -0.27737E-03   -0.58750E-03  5440   0.767E-02    0.654E-02
DAV:   3    -0.138034859578E+04    0.92039E-04   -0.63256E-04  6080   0.269E-02    0.213E-02
DAV:   4    -0.138034859785E+04   -0.20703E-05   -0.89024E-05  5984   0.942E-03    0.137E-02
DAV:   5    -0.138034859679E+04    0.10638E-05   -0.72492E-06  5824   0.302E-03    0.694E-03
DAV:   6    -0.138034859640E+04    0.38606E-06   -0.16807E-06  6400   0.220E-03    0.226E-03
DAV:   7    -0.138034859643E+04   -0.21799E-07   -0.63436E-07  6432   0.103E-03    0.108E-03
DAV:   8    -0.138034859668E+04   -0.25393E-06   -0.14660E-07  5568   0.499E-04    0.756E-04
DAV:   9    -0.138034859700E+04   -0.31700E-06   -0.51645E-08  4448   0.382E-04    0.342E-04
DAV:  10    -0.138034859737E+04   -0.37385E-06   -0.71494E-08  4832   0.426E-04    0.234E-04
DAV:  11    -0.138034859763E+04   -0.26065E-06   -0.27239E-08  4192   0.206E-04    0.159E-04
DAV:  12    -0.138034859786E+04   -0.23171E-06   -0.10038E-08  3392   0.121E-04    0.842E-05
DAV:  13    -0.138034859806E+04   -0.19305E-06   -0.13784E-08  3808   0.111E-04    0.680E-05
DAV:  14    -0.138034859813E+04   -0.68118E-07   -0.27359E-09  3136   0.728E-05    0.483E-05
DAV:  15    -0.138034859818E+04   -0.57393E-07   -0.20277E-09  3072   0.679E-05    0.291E-05
DAV:  16    -0.138034859823E+04   -0.51135E-07   -0.28030E-09  3136   0.694E-05    0.371E-05
DAV:  17    -0.138034859825E+04   -0.19005E-07   -0.12515E-09  3040   0.613E-05    0.300E-05
DAV:  18    -0.138034859826E+04   -0.10972E-07   -0.48594E-10  3040   0.447E-05    0.160E-05
DAV:  19    -0.138034859827E+04   -0.64319E-08    0.23055E-10  2944   0.268E-05
   6 F= -.13995617E+04 E0= -.13995617E+04  d E =0.705912E-03  mag=    -0.0000
       N       E                     dE             d eps       ncg     rms          rms(c)
DAV:   1    -0.138034844464E+04    0.15363E-03   -0.11831E+00  5120   0.108E+00    0.141E-01
DAV:   2    -0.138034882290E+04   -0.37826E-03   -0.71735E-03  5504   0.871E-02    0.915E-02
DAV:   3    -0.138034872796E+04    0.94939E-04   -0.94568E-04  6400   0.410E-02    0.292E-02
DAV:   4    -0.138034873741E+04   -0.94536E-05   -0.15241E-04  5952   0.141E-02    0.193E-02
DAV:   5    -0.138034873387E+04    0.35424E-05   -0.23432E-05  6176   0.668E-03    0.904E-03
DAV:   6    -0.138034873263E+04    0.12397E-05   -0.46666E-06  6848   0.362E-03    0.319E-03
DAV:   7    -0.138034873284E+04   -0.21237E-06   -0.13963E-06  6272   0.201E-03    0.145E-03
DAV:   8    -0.138034873325E+04   -0.40009E-06   -0.33872E-07  6464   0.109E-03    0.982E-04
DAV:   9    -0.138034873398E+04   -0.73774E-06   -0.14497E-07  5312   0.105E-03    0.502E-04
DAV:  10    -0.138034873469E+04   -0.70508E-06   -0.17856E-07  5520   0.894E-04    0.368E-04
DAV:  11    -0.138034873537E+04   -0.68563E-06   -0.14379E-07  5376   0.599E-04    0.339E-04
DAV:  12    -0.138034873577E+04   -0.39744E-06   -0.38955E-08  4576   0.318E-04    0.194E-04
DAV:  13    -0.138034873607E+04   -0.29423E-06   -0.13719E-08  3808   0.173E-04    0.118E-04
DAV:  14    -0.138034873631E+04   -0.24139E-06   -0.94238E-09  3520   0.111E-04    0.672E-05
DAV:  15    -0.138034873645E+04   -0.14243E-06   -0.43179E-09  3232   0.722E-05    0.520E-05
DAV:  16    -0.138034873657E+04   -0.12240E-06   -0.51142E-09  3328   0.774E-05    0.430E-05
DAV:  17    -0.138034873661E+04   -0.39392E-07   -0.11922E-09  3136   0.549E-05    0.440E-05
DAV:  18    -0.138034873664E+04   -0.26805E-07   -0.43722E-10  3072   0.380E-05    0.255E-05
DAV:  19    -0.138034873666E+04   -0.19718E-07   -0.21186E-10  3072   0.378E-05    0.144E-05
DAV:  20    -0.138034873667E+04   -0.11860E-07   -0.45750E-12  3072   0.291E-05    0.170E-05
DAV:  21    -0.138034873667E+04   -0.44238E-08    0.39180E-10  2944   0.188E-05
   7 F= -.13995620E+04 E0= -.13995620E+04  d E =-.250425E-03  mag=    -0.0000
       N       E                     dE             d eps       ncg     rms          rms(c)
DAV:   1    -0.138034892934E+04   -0.19267E-03   -0.11641E+00  5120   0.112E+00    0.192E-01
DAV:   2    -0.138034979681E+04   -0.86747E-03   -0.12503E-02  5728   0.107E-01    0.131E-01
DAV:   3    -0.138034960349E+04    0.19332E-03   -0.13500E-03  6144   0.491E-02    0.661E-02
DAV:   4    -0.138034959764E+04    0.58482E-05   -0.31869E-04  6304   0.231E-02    0.228E-02
DAV:   5    -0.138034959329E+04    0.43497E-05   -0.42635E-05  5760   0.101E-02    0.116E-02
DAV:   6    -0.138034959141E+04    0.18818E-05   -0.99339E-06  6048   0.462E-03    0.483E-03
DAV:   7    -0.138034959114E+04    0.27423E-06   -0.34995E-06  6528   0.290E-03    0.222E-03
DAV:   8    -0.138034959146E+04   -0.32016E-06   -0.59620E-07  5824   0.155E-03    0.136E-03
DAV:   9    -0.138034959198E+04   -0.51891E-06   -0.45700E-07  6784   0.142E-03    0.865E-04
DAV:  10    -0.138034959292E+04   -0.94461E-06   -0.26065E-07  5600   0.119E-03    0.578E-04
DAV:  11    -0.138034959406E+04   -0.11406E-05   -0.19965E-07  5376   0.106E-03    0.302E-04
DAV:  12    -0.138034959490E+04   -0.84254E-06   -0.16962E-07  5152   0.605E-04    0.317E-04
DAV:  13    -0.138034959525E+04   -0.34538E-06   -0.19619E-08  4144   0.174E-04    0.211E-04
DAV:  14    -0.138034959571E+04   -0.46501E-06   -0.18599E-08  3904   0.148E-04    0.102E-04
DAV:  15    -0.138034959603E+04   -0.31637E-06   -0.11645E-08  3584   0.112E-04    0.751E-05
DAV:  16    -0.138034959621E+04   -0.18025E-06   -0.58993E-09  3328   0.742E-05    0.473E-05
DAV:  17    -0.138034959630E+04   -0.90251E-07   -0.24236E-09  3136   0.500E-05    0.301E-05
DAV:  18    -0.138034959637E+04   -0.71333E-07   -0.31032E-09  3136   0.508E-05    0.178E-05
DAV:  19    -0.138034959639E+04   -0.16851E-07   -0.81593E-10  3136   0.398E-05    0.153E-05
DAV:  20    -0.138034959640E+04   -0.80909E-08   -0.92024E-11  3072   0.284E-05
   8 F= -.13995627E+04 E0= -.13995627E+04  d E =-.716834E-03  mag=     0.0000
       N       E                     dE             d eps       ncg     rms          rms(c)
DAV:   1    -0.138034876268E+04    0.83371E-03   -0.11715E+00  5120   0.107E+00    0.305E-01
DAV:   2    -0.138034950476E+04   -0.74208E-03   -0.11865E-02  5696   0.108E-01    0.248E-01
DAV:   3    -0.138034933774E+04    0.16703E-03   -0.34571E-03  5760   0.903E-02    0.686E-02
DAV:   4    -0.138034930417E+04    0.33563E-04   -0.79808E-04  5952   0.342E-02    0.400E-02
DAV:   5    -0.138034927576E+04    0.28408E-04   -0.16302E-04  6208   0.199E-02    0.174E-02
DAV:   6    -0.138034927297E+04    0.27949E-05   -0.40685E-05  5888   0.822E-03    0.662E-03
DAV:   7    -0.138034927278E+04    0.18837E-06   -0.55948E-06  6688   0.329E-03    0.331E-03
DAV:   8    -0.138034927360E+04   -0.82218E-06   -0.10904E-06  6688   0.161E-03    0.187E-03
DAV:   9    -0.138034927494E+04   -0.13371E-05   -0.66544E-07  6064   0.157E-03    0.110E-03
DAV:  10    -0.138034927642E+04   -0.14759E-05   -0.35611E-07  5824   0.103E-03    0.718E-04
DAV:  11    -0.138034927818E+04   -0.17670E-05   -0.20444E-07  4992   0.853E-04    0.478E-04
DAV:  12    -0.138034927971E+04   -0.15280E-05   -0.14663E-07  5552   0.688E-04    0.348E-04
DAV:  13    -0.138034928052E+04   -0.81182E-06   -0.89164E-08  4704   0.346E-04    0.252E-04
DAV:  14    -0.138034928097E+04   -0.44718E-06   -0.13087E-08  3744   0.137E-04    0.165E-04
DAV:  15    -0.138034928146E+04   -0.48548E-06   -0.18564E-08  4032   0.126E-04    0.817E-05
DAV:  16    -0.138034928175E+04   -0.29591E-06   -0.88836E-09  3552   0.918E-05    0.716E-05
DAV:  17    -0.138034928192E+04   -0.17014E-06   -0.54701E-09  3264   0.826E-05    0.428E-05
DAV:  18    -0.138034928201E+04   -0.84314E-07   -0.38011E-09  3200   0.869E-05    0.363E-05
DAV:  19    -0.138034928204E+04   -0.30894E-07   -0.18406E-09  3072   0.710E-05    0.338E-05
DAV:  20    -0.138034928206E+04   -0.18772E-07   -0.42725E-10  3072   0.425E-05    0.226E-05
DAV:  21    -0.138034928207E+04   -0.14494E-07   -0.98320E-11  3072   0.334E-05    0.146E-05
DAV:  22    -0.138034928208E+04   -0.68103E-08    0.28435E-10  2944   0.216E-05
   9 F= -.13995626E+04 E0= -.13995626E+04  d E =0.991132E-04  mag=    -0.0000
       N       E                     dE             d eps       ncg     rms          rms(c)
DAV:   1    -0.138034878809E+04    0.49398E-03   -0.11517E+00  5120   0.107E+00    0.214E-01
DAV:   2    -0.138034984648E+04   -0.10584E-02   -0.12959E-02  5920   0.927E-02    0.158E-01
DAV:   3    -0.138034966492E+04    0.18156E-03   -0.13978E-03  6528   0.438E-02    0.827E-02
DAV:   4    -0.138034964927E+04    0.15649E-04   -0.35404E-04  5664   0.211E-02    0.312E-02
DAV:   5    -0.138034963574E+04    0.13525E-04   -0.15946E-04  5536   0.175E-02    0.123E-02
DAV:   6    -0.138034963739E+04   -0.16470E-05   -0.23983E-05  5568   0.590E-03    0.533E-03
DAV:   7    -0.138034964057E+04   -0.31827E-05   -0.47958E-06  6048   0.307E-03    0.263E-03
DAV:   8    -0.138034964312E+04   -0.25488E-05   -0.90031E-07  6016   0.119E-03    0.158E-03
DAV:   9    -0.138034964706E+04   -0.39368E-05   -0.73408E-07  5120   0.133E-03    0.119E-03
DAV:  10    -0.138034965065E+04   -0.35891E-05   -0.39598E-07  5312   0.753E-04    0.988E-04
DAV:  11    -0.138034965333E+04   -0.26863E-05   -0.43656E-07  5184   0.773E-04    0.529E-04
DAV:  12    -0.138034965537E+04   -0.20385E-05   -0.14578E-07  4960   0.429E-04    0.457E-04
DAV:  13    -0.138034965648E+04   -0.11089E-05   -0.65839E-08  4608   0.269E-04    0.211E-04
DAV:  14    -0.138034965746E+04   -0.97559E-06   -0.49149E-08  4352   0.171E-04    0.109E-04
DAV:  15    -0.138034965787E+04   -0.41813E-06   -0.12045E-08  3616   0.971E-05    0.754E-05
DAV:  16    -0.138034965826E+04   -0.38742E-06   -0.15462E-08  3808   0.870E-05    0.493E-05
DAV:  17    -0.138034965840E+04   -0.14025E-06   -0.34250E-09  3200   0.643E-05    0.366E-05
DAV:  18    -0.138034965848E+04   -0.76310E-07   -0.19091E-09  3072   0.591E-05    0.450E-05
DAV:  19    -0.138034965852E+04   -0.38985E-07   -0.74857E-10  3072   0.483E-05    0.353E-05
DAV:  20    -0.138034965854E+04   -0.20416E-07   -0.38617E-10  3072   0.405E-05    0.134E-05
DAV:  21    -0.138034965855E+04   -0.16167E-07   -0.14171E-10  3072   0.335E-05    0.296E-05
DAV:  22    -0.138034965856E+04   -0.42637E-08    0.33701E-10  2880   0.188E-05
  10 F= -.13995628E+04 E0= -.13995628E+04  d E =-.167989E-03  mag=    -0.0000
       N       E                     dE             d eps       ncg     rms          rms(c)
DAV:   1    -0.138034925181E+04    0.40675E-03   -0.60921E-01  5120   0.785E-01    0.141E-01
DAV:   2    -0.138034979595E+04   -0.54415E-03   -0.74923E-03  5792   0.786E-02    0.968E-02
DAV:   3    -0.138034970074E+04    0.95212E-04   -0.82024E-04  6208   0.399E-02    0.559E-02
DAV:   4    -0.138034969291E+04    0.78304E-05   -0.20900E-04  5728   0.195E-02    0.203E-02
DAV:   5    -0.138034968828E+04    0.46326E-05   -0.52346E-05  5440   0.118E-02    0.930E-03
DAV:   6    -0.138034968810E+04    0.17913E-06   -0.11810E-05  6368   0.498E-03    0.461E-03
DAV:   7    -0.138034968849E+04   -0.39327E-06   -0.29881E-06  6560   0.271E-03    0.237E-03
DAV:   8    -0.138034968925E+04   -0.75831E-06   -0.36991E-07  5952   0.121E-03    0.138E-03
DAV:   9    -0.138034969063E+04   -0.13749E-05   -0.40793E-07  5472   0.145E-03    0.725E-04
DAV:  10    -0.138034969184E+04   -0.12124E-05   -0.28470E-07  5440   0.895E-04    0.786E-04
DAV:  11    -0.138034969300E+04   -0.11632E-05   -0.12441E-07  5216   0.575E-04    0.378E-04
DAV:  12    -0.138034969410E+04   -0.10987E-05   -0.10741E-07  5136   0.586E-04    0.314E-04
DAV:  13    -0.138034969464E+04   -0.53577E-06   -0.55846E-08  4544   0.311E-04    0.235E-04
DAV:  14    -0.138034969502E+04   -0.38183E-06   -0.14606E-08  3712   0.153E-04    0.118E-04
DAV:  15    -0.138034969546E+04   -0.44111E-06   -0.17901E-08  3872   0.124E-04    0.117E-04
DAV:  16    -0.138034969561E+04   -0.15319E-06   -0.35625E-09  3200   0.759E-05    0.717E-05
DAV:  17    -0.138034969577E+04   -0.15253E-06   -0.56621E-09  3264   0.835E-05    0.468E-05
DAV:  18    -0.138034969583E+04   -0.64960E-07   -0.15523E-09  3072   0.625E-05    0.354E-05
DAV:  19    -0.138034969586E+04   -0.34575E-07   -0.12843E-09  3072   0.544E-05    0.139E-05
DAV:  20    -0.138034969588E+04   -0.11423E-07   -0.46193E-10  3072   0.496E-05    0.147E-05
DAV:  21    -0.138034969588E+04   -0.80181E-08    0.28693E-11  3008   0.294E-05
  11 F= -.13995629E+04 E0= -.13995629E+04  d E =-.133240E-03  mag=     0.0000
       N       E                     dE             d eps       ncg     rms          rms(c)
DAV:   1    -0.138034879358E+04    0.90230E-03   -0.61264E-02  5184   0.129E-01    0.768E-02
DAV:   2    -0.138034883847E+04   -0.44893E-04   -0.43837E-04  5472   0.175E-02    0.443E-02
DAV:   3    -0.138034886677E+04   -0.28296E-04   -0.71457E-05  5824   0.875E-03    0.135E-02
DAV:   4    -0.138034886758E+04   -0.80995E-06   -0.29070E-05  6352   0.628E-03    0.548E-03
DAV:   5    -0.138034886763E+04   -0.51470E-07   -0.29374E-06  6288   0.196E-03    0.213E-03
DAV:   6    -0.138034886863E+04   -0.10021E-05   -0.10876E-06  5072   0.114E-03    0.129E-03
DAV:   7    -0.138034886930E+04   -0.66782E-06   -0.19305E-07  5632   0.605E-04    0.526E-04
DAV:   8    -0.138034886990E+04   -0.59938E-06   -0.75621E-08  4704   0.323E-04    0.290E-04
DAV:   9    -0.138034887052E+04   -0.61996E-06   -0.36430E-08  4352   0.204E-04    0.169E-04
DAV:  10    -0.138034887104E+04   -0.52425E-06   -0.33443E-08  4288   0.168E-04    0.112E-04
DAV:  11    -0.138034887133E+04   -0.29146E-06   -0.12594E-08  3680   0.105E-04    0.769E-05
DAV:  12    -0.138034887155E+04   -0.21361E-06   -0.97511E-09  3552   0.925E-05    0.633E-05
DAV:  13    -0.138034887165E+04   -0.10386E-06   -0.34169E-09  3136   0.696E-05    0.570E-05
DAV:  14    -0.138034887175E+04   -0.94340E-07   -0.47244E-09  3296   0.761E-05    0.336E-05
DAV:  15    -0.138034887178E+04   -0.31854E-07   -0.14222E-09  2944   0.578E-05    0.304E-05
DAV:  16    -0.138034887180E+04   -0.22628E-07   -0.48293E-10  3056   0.373E-05    0.189E-05
DAV:  17    -0.138034887182E+04   -0.23720E-07   -0.33964E-10  2976   0.378E-05    0.241E-05
DAV:  18    -0.138034887183E+04   -0.54715E-08    0.22522E-10  2992   0.250E-05
  12 F= -.13995622E+04 E0= -.13995622E+04  d E =0.714827E-03  mag=     0.0000
       N       E                     dE             d eps       ncg     rms          rms(c)
DAV:   1    -0.138034920659E+04   -0.33477E-03   -0.60556E-02  5120   0.128E-01    0.689E-02
DAV:   2    -0.138034926407E+04   -0.57477E-04   -0.34229E-04  5632   0.155E-02    0.420E-02
DAV:   3    -0.138034929837E+04   -0.34296E-04   -0.33728E-05  5888   0.704E-03    0.641E-03
DAV:   4    -0.138034929931E+04   -0.94243E-06   -0.37817E-06  6656   0.247E-03    0.270E-03
DAV:   5    -0.138034929987E+04   -0.56461E-06   -0.65395E-07  5920   0.123E-03    0.133E-03
DAV:   6    -0.138034930033E+04   -0.45731E-06   -0.15375E-07  6016   0.648E-04    0.727E-04
DAV:   7    -0.138034930097E+04   -0.63860E-06   -0.82575E-08  4672   0.476E-04    0.384E-04
DAV:   8    -0.138034930156E+04   -0.59152E-06   -0.56987E-08  4896   0.360E-04    0.241E-04
DAV:   9    -0.138034930207E+04   -0.50993E-06   -0.25328E-08  4256   0.226E-04    0.155E-04
DAV:  10    -0.138034930255E+04   -0.47439E-06   -0.22346E-08  4032   0.185E-04    0.954E-05
DAV:  11    -0.138034930288E+04   -0.32969E-06   -0.17018E-08  4016   0.141E-04    0.614E-05
DAV:  12    -0.138034930301E+04   -0.13666E-06   -0.37759E-09  3264   0.698E-05    0.437E-05
DAV:  13    -0.138034930313E+04   -0.11548E-06   -0.31752E-09  3200   0.551E-05    0.256E-05
DAV:  14    -0.138034930317E+04   -0.45358E-07   -0.11654E-09  3072   0.478E-05    0.187E-05
DAV:  15    -0.138034930320E+04   -0.30457E-07   -0.79425E-10  3072   0.406E-05    0.140E-05
DAV:  16    -0.138034930322E+04   -0.13766E-07   -0.31882E-10  3072   0.337E-05    0.107E-05
DAV:  17    -0.138034930322E+04   -0.55443E-08    0.23195E-10  2944   0.236E-05
  13 F= -.13995624E+04 E0= -.13995624E+04  d E =-.178209E-03  mag=    -0.0000
       N       E                     dE             d eps       ncg     rms          rms(c)
DAV:   1    -0.138034994757E+04   -0.64435E-03   -0.71040E-02  5248   0.179E-01    0.102E-01
DAV:   2    -0.138034991967E+04    0.27898E-04   -0.11010E-03  5664   0.304E-02    0.556E-02
DAV:   3    -0.138034992446E+04   -0.47921E-05   -0.19677E-04  5600   0.137E-02    0.236E-02
DAV:   4    -0.138034992466E+04   -0.19729E-06   -0.77854E-05  5952   0.102E-02    0.114E-02
DAV:   5    -0.138034992439E+04    0.27254E-06   -0.17203E-05  6432   0.484E-03    0.250E-03
DAV:   6    -0.138034992494E+04   -0.54881E-06   -0.11676E-06  5312   0.112E-03    0.208E-03
DAV:   7    -0.138034992541E+04   -0.47486E-06   -0.49828E-07  5440   0.838E-04    0.597E-04
DAV:   8    -0.138034992601E+04   -0.59580E-06   -0.12393E-07  4848   0.413E-04    0.581E-04
DAV:   9    -0.138034992635E+04   -0.34647E-06   -0.36080E-08  4704   0.251E-04    0.255E-04
DAV:  10    -0.138034992689E+04   -0.53695E-06   -0.30352E-08  4352   0.222E-04    0.164E-04
DAV:  11    -0.138034992731E+04   -0.41966E-06   -0.23301E-08  4224   0.183E-04    0.157E-04
DAV:  12    -0.138034992755E+04   -0.23536E-06   -0.11170E-08  3808   0.120E-04    0.635E-05
DAV:  13    -0.138034992770E+04   -0.15009E-06   -0.31612E-09  3168   0.658E-05    0.372E-05
DAV:  14    -0.138034992784E+04   -0.13929E-06   -0.58322E-09  3424   0.675E-05    0.313E-05
DAV:  15    -0.138034992788E+04   -0.45227E-07   -0.13225E-09  3072   0.614E-05    0.210E-05
DAV:  16    -0.138034992794E+04   -0.54497E-07   -0.14171E-09  3072   0.525E-05    0.186E-05
DAV:  17    -0.138034992796E+04   -0.20242E-07   -0.32640E-10  3072   0.365E-05    0.178E-05
DAV:  18    -0.138034992797E+04   -0.17259E-07   -0.21213E-11  3072   0.301E-05    0.923E-06
DAV:  19    -0.138034992798E+04   -0.87603E-08    0.31747E-10  3072   0.225E-05
  14 F= -.13995631E+04 E0= -.13995631E+04  d E =-.748878E-03  mag=     0.0000
       N       E                     dE             d eps       ncg     rms          rms(c)
DAV:   1    -0.138034951090E+04    0.41707E-03   -0.79769E-02  4352   0.170E-01    0.115E-01
DAV:   2    -0.138034941745E+04    0.93452E-04   -0.11254E-03  4416   0.211E-02    0.673E-02
DAV:   3    -0.138034938808E+04    0.29366E-04   -0.62737E-04  4704   0.150E-02    0.235E-02
DAV:   4    -0.138034937663E+04    0.11454E-04   -0.63343E-05  4448   0.498E-03    0.155E-02
DAV:   5    -0.138034937489E+04    0.17388E-05   -0.21107E-05  4544   0.278E-03    0.387E-03
DAV:   6    -0.138034937499E+04   -0.10199E-06   -0.27319E-06  4736   0.102E-03    0.114E-03
DAV:   7    -0.138034937537E+04   -0.37506E-06   -0.35558E-07  4608   0.357E-04    0.846E-04
DAV:   8    -0.138034937579E+04   -0.42314E-06   -0.44546E-08  3904   0.151E-04    0.334E-04
DAV:   9    -0.138034937626E+04   -0.47445E-06   -0.39083E-08  3968   0.123E-04    0.217E-04
DAV:  10    -0.138034937671E+04   -0.44054E-06   -0.15742E-08  3728   0.100E-04    0.941E-05
DAV:  11    -0.138034937702E+04   -0.31646E-06   -0.12891E-08  3760   0.991E-05    0.781E-05
DAV:  12    -0.138034937723E+04   -0.20763E-06   -0.64709E-09  3392   0.842E-05    0.470E-05
DAV:  13    -0.138034937742E+04   -0.18805E-06   -0.82216E-09  3648   0.721E-05    0.368E-05
DAV:  14    -0.138034937749E+04   -0.69878E-07   -0.17237E-09  3072   0.563E-05    0.191E-05
DAV:  15    -0.138034937754E+04   -0.48502E-07   -0.19659E-09  3120   0.533E-05    0.154E-05
DAV:  16    -0.138034937755E+04   -0.12791E-07   -0.40232E-10  3072   0.405E-05    0.103E-05
DAV:  17    -0.138034937756E+04   -0.11001E-07    0.13820E-10  3008   0.234E-05    0.844E-06
DAV:  18    -0.138034937757E+04   -0.63446E-08    0.34860E-10  3008   0.169E-05
  15 F= -.13995626E+04 E0= -.13995626E+04  d E =0.509029E-03  mag=    -0.0000
       N       E                     dE             d eps       ncg     rms          rms(c)
DAV:   1    -0.138034941668E+04   -0.39125E-04   -0.72548E-02  4352   0.166E-01    0.765E-02
DAV:   2    -0.138034943624E+04   -0.19559E-04   -0.45429E-04  4480   0.120E-02    0.463E-02
DAV:   3    -0.138034943680E+04   -0.55153E-06   -0.63562E-05  4608   0.517E-03    0.428E-03
DAV:   4    -0.138034943701E+04   -0.21678E-06   -0.67584E-06  4576   0.151E-03    0.293E-03
DAV:   5    -0.138034943702E+04   -0.25029E-08   -0.14101E-06  4416   0.774E-04    0.111E-03
DAV:   6    -0.138034943726E+04   -0.24184E-06   -0.18047E-07  4224   0.261E-04    0.584E-04
DAV:   7    -0.138034943762E+04   -0.36119E-06   -0.57316E-08  4000   0.158E-04    0.231E-04
DAV:   8    -0.138034943791E+04   -0.29194E-06   -0.13830E-08  3808   0.893E-05    0.155E-04
DAV:   9    -0.138034943845E+04   -0.54385E-06   -0.31810E-08  3968   0.127E-04    0.812E-05
DAV:  10    -0.138034943866E+04   -0.20550E-06   -0.95486E-09  3648   0.115E-04    0.641E-05
DAV:  11    -0.138034943884E+04   -0.18533E-06   -0.78976E-09  3424   0.105E-04    0.475E-05
DAV:  12    -0.138034943901E+04   -0.16538E-06   -0.11086E-08  3680   0.975E-05    0.259E-05
DAV:  13    -0.138034943906E+04   -0.45315E-07   -0.19120E-09  3072   0.604E-05    0.165E-05
DAV:  14    -0.138034943908E+04   -0.27576E-07   -0.13424E-09  3040   0.470E-05    0.154E-05
DAV:  15    -0.138034943909E+04   -0.82800E-08   -0.13950E-10  3072   0.329E-05
  16 F= -.13995626E+04 E0= -.13995626E+04  d E =-.159177E-04  mag=    -0.0000
       N       E                     dE             d eps       ncg     rms          rms(c)
DAV:   1    -0.138034943272E+04    0.63608E-05   -0.79109E-02  4416   0.186E-01    0.111E-01
DAV:   2    -0.138034937629E+04    0.56435E-04   -0.12639E-03  4672   0.227E-02    0.676E-02
DAV:   3    -0.138034935113E+04    0.25159E-04   -0.64600E-04  4512   0.145E-02    0.250E-02
DAV:   4    -0.138034933707E+04    0.14056E-04   -0.71567E-05  4384   0.489E-03    0.149E-02
DAV:   5    -0.138034933509E+04    0.19822E-05   -0.21879E-05  4416   0.271E-03    0.344E-03
DAV:   6    -0.138034933511E+04   -0.19660E-07   -0.24603E-06  4672   0.938E-04    0.104E-03
DAV:   7    -0.138034933533E+04   -0.22267E-06   -0.30217E-07  4832   0.332E-04    0.712E-04
DAV:   8    -0.138034933565E+04   -0.31323E-06   -0.46250E-08  3840   0.156E-04    0.280E-04
DAV:   9    -0.138034933604E+04   -0.39405E-06   -0.33872E-08  3872   0.123E-04    0.185E-04
DAV:  10    -0.138034933649E+04   -0.44855E-06   -0.23927E-08  3840   0.139E-04    0.843E-05
DAV:  11    -0.138034933670E+04   -0.20696E-06   -0.11795E-08  3520   0.138E-04    0.650E-05
DAV:  12    -0.138034933688E+04   -0.18335E-06   -0.10345E-08  3520   0.129E-04    0.449E-05
DAV:  13    -0.138034933702E+04   -0.13925E-06   -0.79039E-09  3392   0.102E-04    0.299E-05
DAV:  14    -0.138034933708E+04   -0.57102E-07   -0.16948E-09  3104   0.575E-05    0.179E-05
DAV:  15    -0.138034933712E+04   -0.48836E-07   -0.18699E-09  3072   0.479E-05    0.145E-05
DAV:  16    -0.138034933713E+04   -0.75670E-08   -0.24662E-12  3072   0.302E-05
  17 F= -.13995626E+04 E0= -.13995626E+04  d E =0.492357E-04  mag=     0.0000
       N       E                     dE             d eps       ncg     rms          rms(c)
DAV:   1    -0.138034997869E+04   -0.64157E-03   -0.77622E-02  4416   0.177E-01    0.105E-01
DAV:   2    -0.138034991269E+04    0.66001E-04   -0.83784E-04  4512   0.184E-02    0.610E-02
DAV:   3    -0.138034989683E+04    0.15862E-04   -0.45609E-04  4736   0.128E-02    0.196E-02
DAV:   4    -0.138034988848E+04    0.83509E-05   -0.47427E-05  4512   0.435E-03    0.129E-02
DAV:   5    -0.138034988717E+04    0.13059E-05   -0.16714E-05  4592   0.259E-03    0.309E-03
DAV:   6    -0.138034988727E+04   -0.92055E-07   -0.18948E-06  4960   0.877E-04    0.109E-03
DAV:   7    -0.138034988746E+04   -0.18919E-06   -0.24402E-07  4544   0.304E-04    0.825E-04
DAV:   8    -0.138034988769E+04   -0.23273E-06   -0.39256E-08  3936   0.144E-04    0.289E-04
DAV:   9    -0.138034988792E+04   -0.23366E-06   -0.25336E-08  3904   0.117E-04    0.194E-04
DAV:  10    -0.138034988812E+04   -0.19369E-06   -0.64308E-09  3392   0.922E-05    0.901E-05
DAV:  11    -0.138034988832E+04   -0.19933E-06   -0.10079E-08  3456   0.107E-04    0.743E-05
DAV:  12    -0.138034988843E+04   -0.10988E-06   -0.44795E-09  3232   0.894E-05    0.463E-05
DAV:  13    -0.138034988853E+04   -0.10534E-06   -0.53793E-09  3392   0.713E-05    0.347E-05
DAV:  14    -0.138034988857E+04   -0.35347E-07   -0.12417E-09  3072   0.567E-05    0.223E-05
DAV:  15    -0.138034988859E+04   -0.23050E-07   -0.97124E-10  3056   0.459E-05    0.142E-05
DAV:  16    -0.138034988860E+04   -0.95897E-08   -0.33098E-10  3072   0.404E-05
  18 F= -.13995631E+04 E0= -.13995631E+04  d E =-.508711E-03  mag=    -0.0000
       N       E                     dE             d eps       ncg     rms          rms(c)
DAV:   1    -0.138034946587E+04    0.42272E-03   -0.77719E-02  4416   0.177E-01    0.107E-01
DAV:   2    -0.138034939205E+04    0.73813E-04   -0.92420E-04  4480   0.198E-02    0.610E-02
DAV:   3    -0.138034937472E+04    0.17334E-04   -0.44869E-04  4704   0.128E-02    0.202E-02
DAV:   4    -0.138034936694E+04    0.77808E-05   -0.46540E-05  4608   0.422E-03    0.133E-02
DAV:   5    -0.138034936558E+04    0.13604E-05   -0.16232E-05  4640   0.254E-03    0.299E-03
DAV:   6    -0.138034936560E+04   -0.16415E-07   -0.19255E-06  4992   0.878E-04    0.107E-03
DAV:   7    -0.138034936574E+04   -0.14031E-06   -0.20517E-07  4416   0.299E-04    0.760E-04
DAV:   8    -0.138034936587E+04   -0.13845E-06   -0.36521E-08  3904   0.150E-04    0.260E-04
DAV:   9    -0.138034936601E+04   -0.13071E-06   -0.21677E-08  3872   0.125E-04    0.178E-04
DAV:  10    -0.138034936611E+04   -0.10047E-06   -0.62261E-09  3328   0.110E-04    0.779E-05
DAV:  11    -0.138034936623E+04   -0.12352E-06   -0.11160E-08  3520   0.143E-04    0.639E-05
DAV:  12    -0.138034936629E+04   -0.60085E-07   -0.73319E-09  3232   0.141E-04    0.462E-05
DAV:  13    -0.138034936637E+04   -0.81709E-07   -0.60356E-09  3392   0.923E-05    0.314E-05
DAV:  14    -0.138034936640E+04   -0.29439E-07   -0.10112E-09  3072   0.542E-05    0.281E-05
DAV:  15    -0.138034936643E+04   -0.26368E-07   -0.48734E-10  3104   0.379E-05    0.110E-05
DAV:  16    -0.138034936645E+04   -0.19878E-07   -0.76395E-11  3072   0.340E-05    0.153E-05
DAV:  17    -0.138034936645E+04   -0.74506E-08    0.27604E-10  2752   0.198E-05
  19 F= -.13995625E+04 E0= -.13995625E+04  d E =0.577250E-03  mag=    -0.0000
       N       E                     dE             d eps       ncg     rms          rms(c)
DAV:   1    -0.138034984874E+04   -0.48229E-03   -0.76593E-02  4544   0.196E-01    0.995E-02
DAV:   2    -0.138034982881E+04    0.19922E-04   -0.10631E-03  4544   0.218E-02    0.609E-02
DAV:   3    -0.138034981637E+04    0.12449E-04   -0.48823E-04  4672   0.141E-02    0.210E-02
DAV:   4    -0.138034980678E+04    0.95859E-05   -0.58838E-05  4544   0.479E-03    0.136E-02
DAV:   5    -0.138034980503E+04    0.17488E-05   -0.22459E-05  4608   0.297E-03    0.294E-03
DAV:   6    -0.138034980530E+04   -0.27151E-06   -0.20320E-06  4576   0.887E-04    0.108E-03
DAV:   7    -0.138034980559E+04   -0.28852E-06   -0.34680E-07  4992   0.383E-04    0.743E-04
DAV:   8    -0.138034980595E+04   -0.36127E-06   -0.77410E-08  4096   0.201E-04    0.278E-04
DAV:   9    -0.138034980629E+04   -0.33273E-06   -0.29032E-08  4096   0.132E-04    0.203E-04
DAV:  10    -0.138034980662E+04   -0.33296E-06   -0.13873E-08  3840   0.106E-04    0.974E-05
DAV:  11    -0.138034980688E+04   -0.25862E-06   -0.12985E-08  3840   0.109E-04    0.720E-05
DAV:  12    -0.138034980704E+04   -0.16052E-06   -0.75637E-09  3456   0.112E-04    0.437E-05
DAV:  13    -0.138034980716E+04   -0.12257E-06   -0.79131E-09  3584   0.109E-04    0.369E-05
DAV:  14    -0.138034980721E+04   -0.54395E-07   -0.29637E-09  3200   0.875E-05    0.229E-05
DAV:  15    -0.138034980726E+04   -0.44747E-07   -0.20917E-09  3040   0.598E-05    0.198E-05
DAV:  16    -0.138034980728E+04   -0.18612E-07   -0.54014E-10  3072   0.360E-05    0.115E-05
DAV:  17    -0.138034980729E+04   -0.10885E-07    0.16102E-11  2960   0.274E-05    0.883E-06
DAV:  18    -0.138034980729E+04   -0.36380E-08    0.30171E-10  2976   0.191E-05
  20 F= -.13995630E+04 E0= -.13995630E+04  d E =-.526115E-03  mag=     0.0000
       N       E                     dE             d eps       ncg     rms          rms(c)
DAV:   1    -0.138034936389E+04    0.44339E-03   -0.79894E-02  4160   0.195E-01    0.115E-01
DAV:   2    -0.138034927248E+04    0.91410E-04   -0.11269E-03  4288   0.236E-02    0.681E-02
DAV:   3    -0.138034924805E+04    0.24432E-04   -0.71613E-04  4544   0.172E-02    0.255E-02
DAV:   4    -0.138034923413E+04    0.13920E-04   -0.66852E-05  4464   0.549E-03    0.169E-02
DAV:   5    -0.138034923165E+04    0.24837E-05   -0.27940E-05  4448   0.330E-03    0.405E-03
DAV:   6    -0.138034923146E+04    0.18618E-06   -0.35628E-06  4640   0.125E-03    0.119E-03
DAV:   7    -0.138034923159E+04   -0.12913E-06   -0.40911E-07  4800   0.417E-04    0.116E-03
DAV:   8    -0.138034923174E+04   -0.15170E-06   -0.64881E-08  4128   0.237E-04    0.386E-04
DAV:   9    -0.138034923190E+04   -0.15838E-06   -0.63260E-08  4160   0.204E-04    0.329E-04
DAV:  10    -0.138034923206E+04   -0.15595E-06   -0.14420E-08  3776   0.121E-04    0.959E-05
DAV:  11    -0.138034923218E+04   -0.12023E-06   -0.86675E-09  3712   0.974E-05    0.941E-05
DAV:  12    -0.138034923227E+04   -0.90062E-07   -0.40497E-09  3328   0.806E-05    0.469E-05
DAV:  13    -0.138034923235E+04   -0.85609E-07   -0.48279E-09  3392   0.749E-05    0.355E-05
DAV:  14    -0.138034923239E+04   -0.36453E-07   -0.12926E-09  3072   0.488E-05    0.212E-05
DAV:  15    -0.138034923244E+04   -0.44762E-07   -0.17630E-09  3040   0.405E-05    0.134E-05
DAV:  16    -0.138034923245E+04   -0.13984E-07   -0.32070E-10  3072   0.330E-05    0.107E-05
DAV:  17    -0.138034923246E+04   -0.78580E-08    0.14800E-10  2880   0.229E-05
  21 F= -.13995624E+04 E0= -.13995624E+04  d E =0.588713E-03  mag=     0.0000
       N       E                     dE             d eps       ncg     rms          rms(c)
DAV:   1    -0.138034936946E+04   -0.13701E-03   -0.72898E-02  4160   0.189E-01    0.784E-02
DAV:   2    -0.138034938970E+04   -0.20236E-04   -0.46350E-04  4320   0.135E-02    0.475E-02
DAV:   3    -0.138034938866E+04    0.10333E-05   -0.67432E-05  4288   0.560E-03    0.471E-03
DAV:   4    -0.138034938889E+04   -0.22777E-06   -0.69973E-06  4448   0.155E-03    0.303E-03
DAV:   5    -0.138034938901E+04   -0.11653E-06   -0.17703E-06  4384   0.913E-04    0.110E-03
DAV:   6    -0.138034938931E+04   -0.30082E-06   -0.23388E-07  4384   0.294E-04    0.613E-04
DAV:   7    -0.138034938982E+04   -0.51776E-06   -0.75260E-08  4096   0.179E-04    0.231E-04
DAV:   8    -0.138034939017E+04   -0.34129E-06   -0.16476E-08  3968   0.989E-05    0.173E-04
DAV:   9    -0.138034939086E+04   -0.69411E-06   -0.47123E-08  4064   0.169E-04    0.892E-05
DAV:  10    -0.138034939111E+04   -0.24569E-06   -0.17580E-08  4016   0.166E-04    0.713E-05
DAV:  11    -0.138034939130E+04   -0.19588E-06   -0.12547E-08  3776   0.154E-04    0.509E-05
DAV:  12    -0.138034939148E+04   -0.17678E-06   -0.12320E-08  3648   0.131E-04    0.383E-05
DAV:  13    -0.138034939154E+04   -0.60070E-07   -0.26850E-09  3136   0.738E-05    0.217E-05
DAV:  14    -0.138034939159E+04   -0.53595E-07   -0.31176E-09  3136   0.641E-05    0.202E-05
DAV:  15    -0.138034939160E+04   -0.94878E-08   -0.43314E-10  3136   0.447E-05
  22 F= -.13995625E+04 E0= -.13995625E+04  d E =-.754253E-04  mag=    -0.0000
       N       E                     dE             d eps       ncg     rms          rms(c)
DAV:   1    -0.138034994515E+04   -0.55356E-03   -0.75981E-02  4992   0.193E-01    0.957E-02
DAV:   2    -0.138034993872E+04    0.64252E-05   -0.10084E-03  4800   0.213E-02    0.597E-02
DAV:   3    -0.138034991905E+04    0.19672E-04   -0.45129E-04  4944   0.144E-02    0.202E-02
DAV:   4    -0.138034991134E+04    0.77124E-05   -0.50529E-05  4800   0.471E-03    0.132E-02
DAV:   5    -0.138034990934E+04    0.19989E-05   -0.23082E-05  4672   0.295E-03    0.248E-03
DAV:   6    -0.138034990964E+04   -0.29673E-06   -0.12892E-06  4640   0.794E-04    0.112E-03
DAV:   7    -0.138034991001E+04   -0.37400E-06   -0.28505E-07  4384   0.328E-04    0.642E-04
DAV:   8    -0.138034991048E+04   -0.46757E-06   -0.48203E-08  4064   0.212E-04    0.299E-04
DAV:   9    -0.138034991102E+04   -0.53986E-06   -0.42248E-08  4096   0.191E-04    0.178E-04
DAV:  10    -0.138034991155E+04   -0.53180E-06   -0.26775E-08  3968   0.169E-04    0.130E-04
DAV:  11    -0.138034991187E+04   -0.32125E-06   -0.17475E-08  3904   0.161E-04    0.733E-05
DAV:  12    -0.138034991213E+04   -0.25405E-06   -0.17633E-08  3872   0.177E-04    0.541E-05
DAV:  13    -0.138034991224E+04   -0.11091E-06   -0.12407E-08  3648   0.184E-04    0.448E-05
DAV:  14    -0.138034991231E+04   -0.72847E-07   -0.61647E-09  3296   0.123E-04    0.189E-05
DAV:  15    -0.138034991234E+04   -0.34910E-07   -0.14086E-09  3072   0.558E-05    0.167E-05
DAV:  16    -0.138034991236E+04   -0.15294E-07   -0.15154E-10  3072   0.329E-05    0.993E-06
DAV:  17    -0.138034991237E+04   -0.10725E-07   -0.19986E-11  3072   0.253E-05    0.121E-05
DAV:  18    -0.138034991237E+04   -0.23138E-08    0.47906E-10  2880   0.155E-05
  23 F= -.13995631E+04 E0= -.13995631E+04  d E =-.574629E-03  mag=    -0.0000
       N       E                     dE             d eps       ncg     rms          rms(c)
DAV:   1    -0.138034964545E+04    0.26692E-03   -0.79197E-02  4992   0.180E-01    0.113E-01
DAV:   2    -0.138034953641E+04    0.10904E-03   -0.94998E-04  5120   0.210E-02    0.641E-02
DAV:   3    -0.138034951755E+04    0.18858E-04   -0.53449E-04  5440   0.143E-02    0.214E-02
DAV:   4    -0.138034950813E+04    0.94251E-05   -0.58226E-05  4896   0.484E-03    0.139E-02
DAV:   5    -0.138034950696E+04    0.11644E-05   -0.18838E-05  5024   0.289E-03    0.300E-03
DAV:   6    -0.138034950691E+04    0.51572E-07   -0.18763E-06  5344   0.100E-03    0.122E-03
DAV:   7    -0.138034950686E+04    0.49389E-07   -0.24173E-07  5120   0.327E-04    0.883E-04
DAV:   8    -0.138034950687E+04   -0.45256E-08   -0.42592E-08  4192   0.239E-04
  24 F= -.13995627E+04 E0= -.13995627E+04  d E =0.442045E-03  mag=     0.0000
       N       E                     dE             d eps       ncg     rms          rms(c)
DAV:   1    -0.138034940126E+04    0.10561E-03   -0.73531E-02  5056   0.176E-01    0.790E-02
DAV:   2    -0.138034942117E+04   -0.19919E-04   -0.53345E-04  4768   0.138E-02    0.478E-02
DAV:   3    -0.138034941662E+04    0.45592E-05   -0.84517E-05  4896   0.605E-03    0.579E-03
DAV:   4    -0.138034941645E+04    0.16682E-06   -0.89988E-06  4736   0.188E-03    0.359E-03
DAV:   5    -0.138034941625E+04    0.19367E-06   -0.28794E-06  4832   0.112E-03    0.121E-03
DAV:   6    -0.138034941633E+04   -0.70664E-07   -0.36484E-07  4416   0.419E-04    0.656E-04
DAV:   7    -0.138034941643E+04   -0.10744E-06   -0.66774E-08  4032   0.216E-04    0.218E-04
DAV:   8    -0.138034941654E+04   -0.11078E-06   -0.16387E-08  3872   0.137E-04    0.155E-04
DAV:   9    -0.138034941672E+04   -0.17352E-06   -0.12910E-08  3680   0.165E-04    0.814E-05
DAV:  10    -0.138034941686E+04   -0.13768E-06   -0.17946E-08  3904   0.214E-04    0.599E-05
DAV:  11    -0.138034941694E+04   -0.85303E-07   -0.14878E-08  3776   0.219E-04    0.495E-05
DAV:  12    -0.138034941702E+04   -0.79643E-07   -0.67802E-09  3328   0.133E-04    0.323E-05
DAV:  13    -0.138034941707E+04   -0.52722E-07   -0.20063E-09  3136   0.556E-05    0.166E-05
DAV:  14    -0.138034941710E+04   -0.28551E-07   -0.11649E-09  3072   0.566E-05    0.154E-05
DAV:  15    -0.138034941711E+04   -0.11452E-07   -0.14396E-10  3040   0.377E-05    0.104E-05
DAV:  16    -0.138034941712E+04   -0.11772E-07    0.14909E-10  3008   0.223E-05    0.840E-06
DAV:  17    -0.138034941713E+04   -0.24884E-08    0.45285E-10  2880   0.150E-05
  25 F= -.13995625E+04 E0= -.13995625E+04  d E =0.137966E-03  mag=    -0.0000
       N       E                     dE             d eps       ncg     rms          rms(c)
DAV:   1    -0.138034903976E+04    0.37737E-03   -0.82737E-02  5056   0.198E-01    0.127E-01
DAV:   2    -0.138034892716E+04    0.11260E-03   -0.17359E-03  4928   0.294E-02    0.767E-02
DAV:   3    -0.138034888344E+04    0.43717E-04   -0.10300E-03  5056   0.207E-02    0.295E-02
DAV:   4    -0.138034886436E+04    0.19085E-04   -0.12597E-04  4800   0.699E-03    0.192E-02
DAV:   5    -0.138034886062E+04    0.37412E-05   -0.38047E-05  4960   0.402E-03    0.445E-03
DAV:   6    -0.138034886058E+04    0.41735E-07   -0.40450E-06  4736   0.139E-03    0.140E-03
DAV:   7    -0.138034886080E+04   -0.22585E-06   -0.69217E-07  5408   0.567E-04    0.927E-04
DAV:   8    -0.138034886116E+04   -0.35751E-06   -0.69997E-08  4128   0.218E-04    0.448E-04
DAV:   9    -0.138034886168E+04   -0.51747E-06   -0.65543E-08  4416   0.193E-04    0.265E-04
DAV:  10    -0.138034886211E+04   -0.43669E-06   -0.17988E-08  3936   0.120E-04    0.210E-04
DAV:  11    -0.138034886258E+04   -0.46460E-06   -0.23891E-08  3904   0.125E-04    0.109E-04
DAV:  12    -0.138034886282E+04   -0.24134E-06   -0.10596E-08  3744   0.918E-05    0.879E-05
DAV:  13    -0.138034886302E+04   -0.19516E-06   -0.58204E-09  3424   0.663E-05    0.498E-05
DAV:  14    -0.138034886314E+04   -0.12820E-06   -0.45365E-09  3296   0.700E-05    0.280E-05
DAV:  15    -0.138034886321E+04   -0.63126E-07   -0.34109E-09  3136   0.861E-05    0.242E-05
DAV:  16    -0.138034886323E+04   -0.21435E-07   -0.15804E-09  3088   0.631E-05    0.189E-05
DAV:  17    -0.138034886324E+04   -0.13984E-07   -0.36430E-10  3008   0.310E-05    0.971E-06
DAV:  18    -0.138034886325E+04   -0.61991E-08    0.18390E-10  3008   0.224E-05
  26 F= -.13995620E+04 E0= -.13995620E+04  d E =0.469387E-03  mag=     0.0000
       N       E                     dE             d eps       ncg     rms          rms(c)
DAV:   1    -0.138034993054E+04   -0.10673E-02   -0.75860E-02  4160   0.168E-01    0.961E-02
DAV:   2    -0.138034989363E+04    0.36912E-04   -0.68757E-04  4160   0.156E-02    0.577E-02
DAV:   3    -0.138034988227E+04    0.11359E-04   -0.36874E-04  4352   0.121E-02    0.185E-02
DAV:   4    -0.138034987538E+04    0.68917E-05   -0.35548E-05  4288   0.394E-03    0.123E-02
DAV:   5    -0.138034987402E+04    0.13601E-05   -0.21131E-05  4256   0.272E-03    0.219E-03
DAV:   6    -0.138034987473E+04   -0.71073E-06   -0.12699E-06  4256   0.706E-04    0.105E-03
DAV:   7    -0.138034987560E+04   -0.86882E-06   -0.28415E-07  4352   0.305E-04    0.885E-04
DAV:   8    -0.138034987691E+04   -0.13073E-05   -0.15829E-07  4160   0.290E-04    0.245E-04
DAV:   9    -0.138034987771E+04   -0.80667E-06   -0.55833E-08  4576   0.175E-04    0.332E-04
DAV:  10    -0.138034987870E+04   -0.98995E-06   -0.53018E-08  4000   0.160E-04    0.102E-04
DAV:  11    -0.138034987919E+04   -0.48909E-06   -0.19608E-08  3936   0.124E-04    0.123E-04
DAV:  12    -0.138034987954E+04   -0.34897E-06   -0.12269E-08  3776   0.108E-04    0.489E-05
DAV:  13    -0.138034987975E+04   -0.20907E-06   -0.58364E-09  3456   0.788E-05    0.484E-05
DAV:  14    -0.138034987990E+04   -0.15301E-06   -0.38025E-09  3264   0.628E-05    0.176E-05
DAV:  15    -0.138034987997E+04   -0.63097E-07   -0.15709E-09  3008   0.540E-05    0.167E-05
DAV:  16    -0.138034987999E+04   -0.19703E-07   -0.31187E-10  3008   0.382E-05    0.114E-05
DAV:  17    -0.138034988001E+04   -0.23778E-07   -0.12289E-10  3008   0.293E-05    0.951E-06
DAV:  18    -0.138034988002E+04   -0.47876E-08    0.45044E-10  3040   0.171E-05
  27 F= -.13995631E+04 E0= -.13995631E+04  d E =-.102825E-02  mag=    -0.0000
       N       E                     dE             d eps       ncg     rms          rms(c)
DAV:   1    -0.138034983283E+04    0.47181E-04   -0.74941E-02  4128   0.168E-01    0.924E-02
DAV:   2    -0.138034981590E+04    0.16932E-04   -0.73506E-04  4288   0.163E-02    0.554E-02
DAV:   3    -0.138034980653E+04    0.93722E-05   -0.30649E-04  4576   0.111E-02    0.162E-02
DAV:   4    -0.138034980135E+04    0.51732E-05   -0.32383E-05  4480   0.376E-03    0.105E-02
DAV:   5    -0.138034980045E+04    0.90276E-06   -0.16621E-05  4416   0.265E-03    0.186E-03
DAV:   6    -0.138034980088E+04   -0.43087E-06   -0.11489E-06  4288   0.737E-04    0.103E-03
DAV:   7    -0.138034980140E+04   -0.52032E-06   -0.20439E-07  4448   0.313E-04    0.650E-04
DAV:   8    -0.138034980193E+04   -0.53343E-06   -0.60580E-08  4064   0.175E-04    0.242E-04
DAV:   9    -0.138034980243E+04   -0.49545E-06   -0.29608E-08  3904   0.135E-04    0.188E-04
DAV:  10    -0.138034980291E+04   -0.47695E-06   -0.22548E-08  3936   0.161E-04    0.939E-05
DAV:  11    -0.138034980316E+04   -0.25705E-06   -0.17606E-08  3968   0.166E-04    0.735E-05
DAV:  12    -0.138034980331E+04   -0.14235E-06   -0.79252E-09  3552   0.132E-04    0.516E-05
DAV:  13    -0.138034980342E+04   -0.11759E-06   -0.52490E-09  3456   0.855E-05    0.299E-05
DAV:  14    -0.138034980346E+04   -0.40396E-07   -0.10218E-09  3072   0.557E-05    0.184E-05
DAV:  15    -0.138034980352E+04   -0.54686E-07   -0.14528E-09  3040   0.494E-05    0.139E-05
DAV:  16    -0.138034980353E+04   -0.10521E-07   -0.30106E-11  3072   0.316E-05    0.108E-05
DAV:  17    -0.138034980354E+04   -0.88330E-08    0.36279E-10  2912   0.190E-05
  28 F= -.13995630E+04 E0= -.13995630E+04  d E =0.912987E-04  mag=     0.0000
       N       E                     dE             d eps       ncg     rms          rms(c)
DAV:   1    -0.138034935797E+04    0.44556E-03   -0.74498E-02  4224   0.194E-01    0.907E-02
DAV:   2    -0.138034936144E+04   -0.34724E-05   -0.81876E-04  4384   0.181E-02    0.561E-02
DAV:   3    -0.138034934246E+04    0.18980E-04   -0.16459E-04  4384   0.887E-03    0.991E-03
DAV:   4    -0.138034934182E+04    0.64068E-06   -0.15067E-05  4480   0.246E-03    0.628E-03
DAV:   5    -0.138034934225E+04   -0.43451E-06   -0.72452E-06  4288   0.167E-03    0.190E-03
DAV:   6    -0.138034934301E+04   -0.75744E-06   -0.76094E-07  4224   0.571E-04    0.101E-03
DAV:   7    -0.138034934435E+04   -0.13381E-05   -0.20997E-07  4224   0.316E-04    0.437E-04
DAV:   8    -0.138034934553E+04   -0.11788E-05   -0.74788E-08  4256   0.169E-04    0.296E-04
DAV:   9    -0.138034934705E+04   -0.15195E-05   -0.69145E-08  4192   0.180E-04    0.148E-04
DAV:  10    -0.138034934808E+04   -0.10351E-05   -0.56322E-08  4192   0.206E-04    0.111E-04
DAV:  11    -0.138034934864E+04   -0.56245E-06   -0.28845E-08  4032   0.206E-04    0.743E-05
DAV:  12    -0.138034934914E+04   -0.49852E-06   -0.31560E-08  4096   0.196E-04    0.507E-05
DAV:  13    -0.138034934930E+04   -0.15683E-06   -0.72997E-09  3424   0.118E-04    0.325E-05
DAV:  14    -0.138034934939E+04   -0.90848E-07   -0.33218E-09  3072   0.682E-05    0.175E-05
DAV:  15    -0.138034934943E+04   -0.36744E-07   -0.17347E-09  3008   0.559E-05    0.177E-05
DAV:  16    -0.138034934944E+04   -0.11249E-07   -0.52449E-10  3136   0.370E-05    0.129E-05
DAV:  17    -0.138034934944E+04   -0.51805E-08    0.11316E-10  3008   0.214E-05
  29 F= -.13995626E+04 E0= -.13995626E+04  d E =0.389323E-03  mag=    -0.0000
       N       E                     dE             d eps       ncg     rms          rms(c)
DAV:   1    -0.138034992196E+04   -0.57252E-03   -0.75448E-02  4224   0.192E-01    0.944E-02
DAV:   2    -0.138034989687E+04    0.25089E-04   -0.73507E-04  4160   0.179E-02    0.568E-02
DAV:   3    -0.138034988774E+04    0.91278E-05   -0.36924E-04  4416   0.125E-02    0.182E-02
DAV:   4    -0.138034988077E+04    0.69725E-05   -0.33592E-05  4480   0.405E-03    0.124E-02
DAV:   5    -0.138034987906E+04    0.17077E-05   -0.18298E-05  4416   0.267E-03    0.272E-03
DAV:   6    -0.138034987945E+04   -0.38909E-06   -0.16097E-06  4672   0.861E-04    0.106E-03
DAV:   7    -0.138034987997E+04   -0.51390E-06   -0.24174E-07  4432   0.302E-04    0.899E-04
DAV:   8    -0.138034988064E+04   -0.67450E-06   -0.76598E-08  4000   0.199E-04    0.267E-04
DAV:   9    -0.138034988117E+04   -0.52909E-06   -0.48282E-08  4016   0.151E-04    0.293E-04
DAV:  10    -0.138034988173E+04   -0.56233E-06   -0.27195E-08  3904   0.147E-04    0.924E-05
DAV:  11    -0.138034988198E+04   -0.24871E-06   -0.11152E-08  3680   0.124E-04    0.106E-04
DAV:  12    -0.138034988215E+04   -0.17429E-06   -0.72147E-09  3360   0.107E-04    0.446E-05
DAV:  13    -0.138034988230E+04   -0.14338E-06   -0.76358E-09  3648   0.919E-05    0.334E-05
DAV:  14    -0.138034988235E+04   -0.49738E-07   -0.17182E-09  3040   0.615E-05    0.198E-05
DAV:  15    -0.138034988239E+04   -0.47439E-07   -0.25252E-09  3104   0.520E-05    0.143E-05
DAV:  16    -0.138034988240E+04   -0.57189E-08   -0.30479E-10  3136   0.374E-05
  30 F= -.13995631E+04 E0= -.13995631E+04  d E =-.506073E-03  mag=     0.0000
       N       E                     dE             d eps       ncg     rms          rms(c)
DAV:   1    -0.138034925779E+04    0.62460E-03   -0.76804E-02  4160   0.193E-01    0.103E-01
DAV:   2    -0.138034920111E+04    0.56681E-04   -0.88169E-04  4240   0.204E-02    0.601E-02
DAV:   3    -0.138034918397E+04    0.17144E-04   -0.45126E-04  4608   0.137E-02    0.201E-02
DAV:   4    -0.138034917605E+04    0.79188E-05   -0.43074E-05  4352   0.439E-03    0.135E-02
DAV:   5    -0.138034917478E+04    0.12699E-05   -0.19051E-05  4416   0.274E-03    0.291E-03
DAV:   6    -0.138034917495E+04   -0.17692E-06   -0.19055E-06  4576   0.917E-04    0.109E-03
DAV:   7    -0.138034917525E+04   -0.29802E-06   -0.24942E-07  4736   0.309E-04    0.910E-04
DAV:   8    -0.138034917553E+04   -0.28190E-06   -0.51530E-08  4096   0.182E-04    0.264E-04
DAV:   9    -0.138034917578E+04   -0.24716E-06   -0.32393E-08  3904   0.152E-04    0.225E-04
DAV:  10    -0.138034917597E+04   -0.18516E-06   -0.12308E-08  3680   0.150E-04    0.719E-05
DAV:  11    -0.138034917611E+04   -0.14160E-06   -0.12472E-08  3712   0.163E-04    0.789E-05
DAV:  12    -0.138034917619E+04   -0.85187E-07   -0.62142E-09  3360   0.125E-04    0.344E-05
DAV:  13    -0.138034917629E+04   -0.97789E-07   -0.53986E-09  3392   0.793E-05    0.321E-05
DAV:  14    -0.138034917632E+04   -0.32087E-07   -0.10369E-09  3104   0.562E-05    0.154E-05
DAV:  15    -0.138034917635E+04   -0.26703E-07   -0.65784E-10  3040   0.399E-05    0.167E-05
DAV:  16    -0.138034917636E+04   -0.93423E-08    0.11701E-10  3008   0.296E-05
  31 F= -.13995624E+04 E0= -.13995624E+04  d E =0.734574E-03  mag=    -0.0000
       N       E                     dE             d eps       ncg     rms          rms(c)
DAV:   1    -0.138035000092E+04   -0.82457E-03   -0.77347E-02  4416   0.197E-01    0.103E-01
DAV:   2    -0.138034997694E+04    0.23984E-04   -0.11292E-03  4864   0.235E-02    0.628E-02
DAV:   3    -0.138034995777E+04    0.19163E-04   -0.53721E-04  5344   0.158E-02    0.217E-02
DAV:   4    -0.138034994850E+04    0.92781E-05   -0.59248E-05  5184   0.515E-03    0.143E-02
DAV:   5    -0.138034994621E+04    0.22813E-05   -0.26335E-05  4832   0.334E-03    0.277E-03
DAV:   6    -0.138034994639E+04   -0.17277E-06   -0.17359E-06  4928   0.104E-03    0.121E-03
DAV:   7    -0.138034994651E+04   -0.11994E-06   -0.31322E-07  4992   0.444E-04    0.841E-04
DAV:   8    -0.138034994671E+04   -0.20450E-06   -0.62469E-08  4192   0.238E-04    0.325E-04
DAV:   9    -0.138034994693E+04   -0.21372E-06   -0.29456E-08  3968   0.158E-04    0.200E-04
DAV:  10    -0.138034994718E+04   -0.25329E-06   -0.12578E-08  3616   0.136E-04    0.126E-04
DAV:  11    -0.138034994739E+04   -0.21498E-06   -0.14021E-08  3744   0.148E-04    0.724E-05
DAV:  12    -0.138034994756E+04   -0.16349E-06   -0.12477E-08  3520   0.156E-04    0.569E-05
DAV:  13    -0.138034994767E+04   -0.11262E-06   -0.10936E-08  3456   0.162E-04    0.446E-05
DAV:  14    -0.138034994774E+04   -0.65862E-07   -0.79267E-09  3392   0.143E-04    0.256E-05
DAV:  15    -0.138034994778E+04   -0.41982E-07   -0.33193E-09  3168   0.862E-05    0.184E-05
DAV:  16    -0.138034994780E+04   -0.18394E-07   -0.44738E-10  3072   0.342E-05    0.113E-05
DAV:  17    -0.138034994781E+04   -0.12689E-07   -0.38381E-11  3072   0.277E-05    0.108E-05
DAV:  18    -0.138034994781E+04   -0.17462E-08    0.43279E-10  2752   0.185E-05
  32 F= -.13995631E+04 E0= -.13995631E+04  d E =-.752585E-03  mag=     0.0000
       N       E                     dE             d eps       ncg     rms          rms(c)
DAV:   1    -0.138034962551E+04    0.32230E-03   -0.78718E-02  4448   0.180E-01    0.109E-01
DAV:   2    -0.138034954545E+04    0.80058E-04   -0.98534E-04  4768   0.208E-02    0.636E-02
DAV:   3    -0.138034951978E+04    0.25670E-04   -0.50377E-04  5248   0.144E-02    0.207E-02
DAV:   4    -0.138034951075E+04    0.90381E-05   -0.56537E-05  5088   0.495E-03    0.135E-02
DAV:   5    -0.138034950927E+04    0.14720E-05   -0.18777E-05  5120   0.301E-03    0.324E-03
DAV:   6    -0.138034950946E+04   -0.18837E-06   -0.21821E-06  5184   0.111E-03    0.119E-03
DAV:   7    -0.138034950977E+04   -0.30722E-06   -0.27575E-07  5408   0.442E-04    0.909E-04
DAV:   8    -0.138034951016E+04   -0.38746E-06   -0.49444E-08  4288   0.233E-04    0.394E-04
DAV:   9    -0.138034951057E+04   -0.41135E-06   -0.39384E-08  3872   0.175E-04    0.228E-04
DAV:  10    -0.138034951096E+04   -0.38921E-06   -0.17302E-08  3616   0.131E-04    0.157E-04
DAV:  11    -0.138034951134E+04   -0.38184E-06   -0.19213E-08  3744   0.133E-04    0.801E-05
DAV:  12    -0.138034951162E+04   -0.28228E-06   -0.16173E-08  3648   0.125E-04    0.849E-05
DAV:  13    -0.138034951177E+04   -0.14926E-06   -0.66699E-09  3360   0.990E-05    0.484E-05
DAV:  14    -0.138034951188E+04   -0.11190E-06   -0.54576E-09  3232   0.927E-05    0.305E-05
DAV:  15    -0.138034951193E+04   -0.50801E-07   -0.24813E-09  3104   0.708E-05    0.303E-05
DAV:  16    -0.138034951197E+04   -0.39392E-07   -0.10295E-09  3008   0.425E-05    0.127E-05
DAV:  17    -0.138034951199E+04   -0.18103E-07   -0.27194E-10  3040   0.301E-05    0.179E-05
DAV:  18    -0.138034951200E+04   -0.53697E-08    0.30260E-10  2880   0.191E-05
  33 F= -.13995627E+04 E0= -.13995627E+04  d E =0.423673E-03  mag=     0.0000
       N       E                     dE             d eps       ncg     rms          rms(c)
DAV:   1    -0.138034937331E+04    0.13869E-03   -0.72708E-02  4480   0.175E-01    0.770E-02
DAV:   2    -0.138034939272E+04   -0.19413E-04   -0.50246E-04  4768   0.132E-02    0.466E-02
DAV:   3    -0.138034939091E+04    0.18074E-05   -0.77161E-05  5376   0.625E-03    0.541E-03
DAV:   4    -0.138034939085E+04    0.63403E-07   -0.84273E-06  5088   0.191E-03    0.351E-03
DAV:   5    -0.138034939078E+04    0.66560E-07   -0.27667E-06  4928   0.127E-03    0.131E-03
DAV:   6    -0.138034939082E+04   -0.42142E-07   -0.36381E-07  4928   0.552E-04    0.677E-04
DAV:   7    -0.138034939091E+04   -0.84736E-07   -0.52206E-08  4160   0.231E-04    0.283E-04
DAV:   8    -0.138034939102E+04   -0.10576E-06   -0.17345E-08  3968   0.156E-04    0.168E-04
DAV:   9    -0.138034939114E+04   -0.12219E-06   -0.85716E-09  3424   0.128E-04    0.948E-05
DAV:  10    -0.138034939124E+04   -0.10300E-06   -0.73399E-09  3296   0.119E-04    0.681E-05
DAV:  11    -0.138034939131E+04   -0.66502E-07   -0.57703E-09  3392   0.957E-05    0.513E-05
DAV:  12    -0.138034939136E+04   -0.57189E-07   -0.40069E-09  3168   0.808E-05    0.388E-05
DAV:  13    -0.138034939140E+04   -0.33047E-07   -0.26606E-09  3136   0.573E-05    0.230E-05
DAV:  14    -0.138034939141E+04   -0.17710E-07   -0.14142E-09  3072   0.473E-05    0.162E-05
DAV:  15    -0.138034939142E+04   -0.89203E-08   -0.38088E-10  3072   0.339E-05
  34 F= -.13995626E+04 E0= -.13995626E+04  d E =0.135351E-03  mag=    -0.0000
       N       E                     dE             d eps       ncg     rms          rms(c)
DAV:   1    -0.138034942266E+04   -0.31247E-04   -0.80168E-02  4480   0.186E-01    0.115E-01
DAV:   2    -0.138034936624E+04    0.56423E-04   -0.13597E-03  4768   0.247E-02    0.692E-02
DAV:   3    -0.138034933547E+04    0.30766E-04   -0.73554E-04  5248   0.170E-02    0.257E-02
DAV:   4    -0.138034932206E+04    0.13410E-04   -0.75900E-05  5024   0.567E-03    0.166E-02
DAV:   5    -0.138034931882E+04    0.32471E-05   -0.33357E-05  4864   0.371E-03    0.306E-03
DAV:   6    -0.138034931898E+04   -0.16688E-06   -0.27951E-06  5216   0.116E-03    0.132E-03
DAV:   7    -0.138034931902E+04   -0.37864E-07   -0.35220E-07  4928   0.473E-04    0.948E-04
DAV:   8    -0.138034931914E+04   -0.11601E-06   -0.69705E-08  4288   0.236E-04    0.396E-04
DAV:   9    -0.138034931931E+04   -0.17812E-06   -0.32264E-08  3968   0.141E-04    0.203E-04
DAV:  10    -0.138034931958E+04   -0.26514E-06   -0.16077E-08  3408   0.130E-04    0.123E-04
DAV:  11    -0.138034931978E+04   -0.20470E-06   -0.16672E-08  3824   0.144E-04    0.773E-05
DAV:  12    -0.138034931996E+04   -0.17798E-06   -0.19846E-08  3808   0.196E-04    0.588E-05
DAV:  13    -0.138034932006E+04   -0.98153E-07   -0.13023E-08  3488   0.173E-04    0.453E-05
DAV:  14    -0.138034932011E+04   -0.53740E-07   -0.32593E-09  3200   0.869E-05    0.272E-05
DAV:  15    -0.138034932017E+04   -0.53522E-07   -0.26554E-09  3232   0.645E-05    0.165E-05
DAV:  16    -0.138034932019E+04   -0.18888E-07   -0.28080E-10  3072   0.364E-05    0.145E-05
DAV:  17    -0.138034932020E+04   -0.17695E-07   -0.26395E-12  3072   0.271E-05    0.761E-06
DAV:  18    -0.138034932021E+04   -0.56461E-08    0.27822E-10  3040   0.210E-05
  35 F= -.13995625E+04 E0= -.13995625E+04  d E =0.150762E-04  mag=    -0.0000
       N       E                     dE             d eps       ncg     rms          rms(c)
DAV:   1    -0.138034998705E+04   -0.66684E-03   -0.76912E-02  4384   0.164E-01    0.100E-01
DAV:   2    -0.138034993641E+04    0.50636E-04   -0.76546E-04  4384   0.173E-02    0.592E-02
DAV:   3    -0.138034992455E+04    0.11860E-04   -0.38678E-04  4416   0.116E-02    0.183E-02
DAV:   4    -0.138034991736E+04    0.71944E-05   -0.39783E-05  4576   0.396E-03    0.120E-02
DAV:   5    -0.138034991594E+04    0.14169E-05   -0.16470E-05  4576   0.247E-03    0.263E-03
DAV:   6    -0.138034991600E+04   -0.55457E-07   -0.15296E-06  4704   0.780E-04    0.103E-03
DAV:   7    -0.138034991612E+04   -0.11938E-06   -0.19695E-07  4416   0.275E-04    0.723E-04
DAV:   8    -0.138034991627E+04   -0.14911E-06   -0.55851E-08  4032   0.190E-04    0.210E-04
DAV:   9    -0.138034991639E+04   -0.12478E-06   -0.19767E-08  4000   0.123E-04    0.197E-04
DAV:  10    -0.138034991653E+04   -0.13613E-06   -0.73743E-09  3488   0.871E-05    0.690E-05
DAV:  11    -0.138034991661E+04   -0.79715E-07   -0.36661E-09  3264   0.703E-05    0.654E-05
DAV:  12    -0.138034991667E+04   -0.67346E-07   -0.39271E-09  3328   0.796E-05    0.309E-05
DAV:  13    -0.138034991672E+04   -0.47527E-07   -0.43426E-09  3264   0.894E-05    0.281E-05
DAV:  14    -0.138034991674E+04   -0.15731E-07   -0.19686E-09  3088   0.698E-05    0.170E-05
DAV:  15    -0.138034991675E+04   -0.17637E-07   -0.11829E-09  3008   0.435E-05    0.128E-05
DAV:  16    -0.138034991676E+04   -0.30414E-08   -0.17406E-11  3040   0.286E-05
  36 F= -.13995631E+04 E0= -.13995631E+04  d E =-.604048E-03  mag=     0.0000
       N       E                     dE             d eps       ncg     rms          rms(c)
DAV:   1    -0.138034949814E+04    0.41862E-03   -0.78110E-02  4480   0.164E-01    0.105E-01
DAV:   2    -0.138034942593E+04    0.72205E-04   -0.82585E-04  4384   0.182E-02    0.614E-02
DAV:   3    -0.138034940868E+04    0.17254E-04   -0.42468E-04  4352   0.124E-02    0.197E-02
DAV:   4    -0.138034940038E+04    0.82922E-05   -0.46974E-05  4480   0.421E-03    0.125E-02
DAV:   5    -0.138034939919E+04    0.11988E-05   -0.16215E-05  4608   0.243E-03    0.265E-03
DAV:   6    -0.138034939925E+04   -0.68176E-07   -0.14118E-06  4576   0.720E-04    0.104E-03
DAV:   7    -0.138034939937E+04   -0.11513E-06   -0.20173E-07  4512   0.286E-04    0.665E-04
DAV:   8    -0.138034939962E+04   -0.25201E-06   -0.47900E-08  4096   0.193E-04    0.243E-04
DAV:   9    -0.138034939991E+04   -0.28846E-06   -0.27198E-08  4064   0.150E-04    0.210E-04
DAV:  10    -0.138034940022E+04   -0.30633E-06   -0.15292E-08  3904   0.137E-04    0.888E-05
DAV:  11    -0.138034940045E+04   -0.23193E-06   -0.15603E-08  3936   0.159E-04    0.739E-05
DAV:  12    -0.138034940061E+04   -0.16725E-06   -0.12795E-08  3696   0.163E-04    0.441E-05
DAV:  13    -0.138034940073E+04   -0.11921E-06   -0.94420E-09  3568   0.135E-04    0.316E-05
DAV:  14    -0.138034940079E+04   -0.52998E-07   -0.30004E-09  3200   0.825E-05    0.202E-05
DAV:  15    -0.138034940084E+04   -0.48167E-07   -0.17676E-09  3072   0.481E-05    0.114E-05
DAV:  16    -0.138034940085E+04   -0.14916E-07   -0.36053E-10  3072   0.341E-05    0.886E-06
DAV:  17    -0.138034940086E+04   -0.69413E-08    0.23535E-10  3008   0.223E-05
  37 F= -.13995625E+04 E0= -.13995625E+04  d E =0.662089E-03  mag=    -0.0000
       N       E                     dE             d eps       ncg     rms          rms(c)
DAV:   1    -0.138034952016E+04   -0.11931E-03   -0.80422E-02  4992   0.188E-01    0.117E-01
DAV:   2    -0.138034942952E+04    0.90644E-04   -0.13274E-03  5024   0.263E-02    0.696E-02
DAV:   3    -0.138034939877E+04    0.30750E-04   -0.71423E-04  5344   0.171E-02    0.247E-02
DAV:   4    -0.138034938541E+04    0.13364E-04   -0.96265E-05  4928   0.608E-03    0.159E-02
DAV:   5    -0.138034938346E+04    0.19431E-05   -0.26453E-05  4832   0.338E-03    0.360E-03
DAV:   6    -0.138034938365E+04   -0.18647E-06   -0.29100E-06  4960   0.112E-03    0.116E-03
DAV:   7    -0.138034938386E+04   -0.21081E-06   -0.37506E-07  5248   0.410E-04    0.789E-04
DAV:   8    -0.138034938413E+04   -0.27400E-06   -0.70598E-08  4064   0.198E-04    0.286E-04
DAV:   9    -0.138034938438E+04   -0.24559E-06   -0.22815E-08  4032   0.128E-04    0.182E-04
DAV:  10    -0.138034938464E+04   -0.26412E-06   -0.97066E-09  3552   0.811E-05    0.109E-04
DAV:  11    -0.138034938489E+04   -0.24519E-06   -0.10900E-08  3840   0.866E-05    0.639E-05
DAV:  12    -0.138034938508E+04   -0.18763E-06   -0.92250E-09  3584   0.108E-04    0.483E-05
DAV:  13    -0.138034938518E+04   -0.10332E-06   -0.55497E-09  3328   0.108E-04    0.371E-05
DAV:  14    -0.138034938524E+04   -0.65425E-07   -0.27338E-09  3168   0.688E-05    0.214E-05
DAV:  15    -0.138034938530E+04   -0.59357E-07   -0.20360E-09  3104   0.502E-05    0.163E-05
DAV:  16    -0.138034938532E+04   -0.20096E-07   -0.54651E-10  3072   0.410E-05    0.129E-05
DAV:  17    -0.138034938534E+04   -0.15076E-07   -0.14134E-10  3072   0.261E-05    0.907E-06
DAV:  18    -0.138034938535E+04   -0.81345E-08    0.30473E-10  3072   0.171E-05
  38 F= -.13995626E+04 E0= -.13995626E+04  d E =-.736626E-04  mag=    -0.0000
       N       E                     dE             d eps       ncg     rms          rms(c)
DAV:   1    -0.138035009034E+04   -0.70500E-03   -0.77950E-02  4928   0.192E-01    0.107E-01
DAV:   2    -0.138035001576E+04    0.74575E-04   -0.89266E-04  5312   0.217E-02    0.616E-02
DAV:   3    -0.138034999716E+04    0.18599E-04   -0.45194E-04  5504   0.135E-02    0.195E-02
DAV:   4    -0.138034998909E+04    0.80762E-05   -0.51116E-05  5152   0.470E-03    0.123E-02
DAV:   5    -0.138034998799E+04    0.10977E-05   -0.17135E-05  4992   0.285E-03    0.266E-03
DAV:   6    -0.138034998804E+04   -0.45111E-07   -0.15788E-06  4864   0.943E-04    0.116E-03
DAV:   7    -0.138034998813E+04   -0.90862E-07   -0.24325E-07  5088   0.333E-04    0.759E-04
DAV:   8    -0.138034998822E+04   -0.92317E-07   -0.49019E-08  4096   0.207E-04    0.238E-04
DAV:   9    -0.138034998829E+04   -0.71130E-07   -0.15706E-08  3904   0.133E-04    0.155E-04
DAV:  10    -0.138034998836E+04   -0.68452E-07   -0.38502E-09  3200   0.917E-05    0.859E-05
DAV:  11    -0.138034998842E+04   -0.63068E-07   -0.28475E-09  3200   0.852E-05    0.511E-05
DAV:  12    -0.138034998848E+04   -0.62064E-07   -0.39417E-09  3232   0.974E-05    0.436E-05
DAV:  13    -0.138034998852E+04   -0.32553E-07   -0.28116E-09  3136   0.879E-05    0.357E-05
DAV:  14    -0.138034998854E+04   -0.23021E-07   -0.21743E-09  3072   0.734E-05    0.318E-05
DAV:  15    -0.138034998855E+04   -0.12442E-07   -0.97233E-10  3072   0.497E-05    0.265E-05
DAV:  16    -0.138034998856E+04   -0.52241E-08   -0.13755E-10  2944   0.327E-05
  39 F= -.13995632E+04 E0= -.13995632E+04  d E =-.623297E-03  mag=    -0.0000
       N       E                     dE             d eps       ncg     rms          rms(c)
DAV:   1    -0.138034951635E+04    0.47220E-03   -0.78832E-02  4928   0.193E-01    0.109E-01
DAV:   2    -0.138034943357E+04    0.82774E-04   -0.92954E-04  4832   0.212E-02    0.635E-02
DAV:   3    -0.138034941406E+04    0.19515E-04   -0.51419E-04  4880   0.142E-02    0.213E-02
DAV:   4    -0.138034940421E+04    0.98499E-05   -0.57292E-05  4800   0.487E-03    0.135E-02
DAV:   5    -0.138034940282E+04    0.13854E-05   -0.18119E-05  4896   0.279E-03    0.309E-03
DAV:   6    -0.138034940278E+04    0.46974E-07   -0.20802E-06  4928   0.953E-04    0.111E-03
DAV:   7    -0.138034940278E+04   -0.59226E-08   -0.23243E-07  4832   0.323E-04    0.815E-04
DAV:   8    -0.138034940282E+04   -0.36554E-07   -0.40861E-08  4128   0.187E-04    0.255E-04
DAV:   9    -0.138034940286E+04   -0.43365E-07   -0.17506E-08  3776   0.129E-04    0.175E-04
DAV:  10    -0.138034940294E+04   -0.71974E-07   -0.63003E-09  3456   0.106E-04    0.801E-05
DAV:  11    -0.138034940298E+04   -0.47061E-07   -0.41666E-09  3264   0.102E-04    0.546E-05
DAV:  12    -0.138034940303E+04   -0.50990E-07   -0.59886E-09  3376   0.115E-04    0.441E-05
DAV:  13    -0.138034940306E+04   -0.29293E-07   -0.37679E-09  3200   0.996E-05    0.353E-05
DAV:  14    -0.138034940309E+04   -0.23065E-07   -0.18701E-09  3104   0.672E-05    0.289E-05
DAV:  15    -0.138034940310E+04   -0.18772E-07   -0.11716E-09  3104   0.483E-05    0.229E-05
DAV:  16    -0.138034940311E+04   -0.45547E-08   -0.12304E-10  2912   0.324E-05
  40 F= -.13995624E+04 E0= -.13995624E+04  d E =0.749656E-03  mag=     0.0000
       N       E                     dE             d eps       ncg     rms          rms(c)
DAV:   1    -0.138034956374E+04   -0.16063E-03   -0.79644E-02  4992   0.194E-01    0.113E-01
DAV:   2    -0.138034950422E+04    0.59519E-04   -0.14343E-03  5312   0.259E-02    0.691E-02
DAV:   3    -0.138034946906E+04    0.35156E-04   -0.72889E-04  5312   0.184E-02    0.240E-02
DAV:   4    -0.138034945653E+04    0.12534E-04   -0.97041E-05  5312   0.706E-03    0.152E-02
DAV:   5    -0.138034945532E+04    0.12107E-05   -0.29013E-05  5344   0.389E-03    0.361E-03
DAV:   6    -0.138034945547E+04   -0.15520E-06   -0.22704E-06  5184   0.123E-03    0.147E-03
DAV:   7    -0.138034945567E+04   -0.20344E-06   -0.50264E-07  5344   0.508E-04    0.710E-04
DAV:   8    -0.138034945584E+04   -0.16103E-06   -0.76029E-08  4384   0.266E-04    0.360E-04
DAV:   9    -0.138034945595E+04   -0.11103E-06   -0.13855E-08  3680   0.122E-04    0.174E-04
DAV:  10    -0.138034945606E+04   -0.11537E-06   -0.67565E-09  3328   0.102E-04    0.930E-05
DAV:  11    -0.138034945615E+04   -0.83295E-07   -0.34421E-09  3296   0.766E-05    0.735E-05
DAV:  12    -0.138034945623E+04   -0.81927E-07   -0.35570E-09  3264   0.868E-05    0.436E-05
DAV:  13    -0.138034945628E+04   -0.50815E-07   -0.29149E-09  3184   0.824E-05    0.374E-05
DAV:  14    -0.138034945631E+04   -0.29366E-07   -0.15423E-09  3072   0.628E-05    0.235E-05
DAV:  15    -0.138034945634E+04   -0.29191E-07   -0.10519E-09  3072   0.504E-05    0.229E-05
DAV:  16    -0.138034945635E+04   -0.16138E-07   -0.24519E-10  3072   0.323E-05    0.206E-05
DAV:  17    -0.138034945636E+04   -0.57771E-08    0.33104E-10  2752   0.216E-05
  41 F= -.13995627E+04 E0= -.13995627E+04  d E =-.265267E-03  mag=     0.0000
       N       E                     dE             d eps       ncg     rms          rms(c)
DAV:   1    -0.138034994416E+04   -0.48781E-03   -0.78338E-02  4992   0.177E-01    0.111E-01
DAV:   2    -0.138034982869E+04    0.11547E-03   -0.98981E-04  5312   0.201E-02    0.623E-02
DAV:   3    -0.138034981140E+04    0.17298E-04   -0.47479E-04  5376   0.132E-02    0.206E-02
DAV:   4    -0.138034980248E+04    0.89161E-05   -0.75500E-05  5408   0.606E-03    0.102E-02
DAV:   5    -0.138034980369E+04   -0.12078E-05   -0.96333E-06  5632   0.246E-03    0.265E-03
DAV:   6    -0.138034980388E+04   -0.19118E-06   -0.78362E-07  5280   0.926E-04    0.127E-03
DAV:   7    -0.138034980416E+04   -0.27826E-06   -0.13641E-07  5024   0.335E-04    0.538E-04
DAV:   8    -0.138034980446E+04   -0.30133E-06   -0.43870E-08  4704   0.213E-04    0.302E-04
DAV:   9    -0.138034980476E+04   -0.29700E-06   -0.14793E-08  3648   0.134E-04    0.146E-04
DAV:  10    -0.138034980504E+04   -0.28034E-06   -0.10407E-08  3616   0.859E-05    0.103E-04
DAV:  11    -0.138034980521E+04   -0.17411E-06   -0.38238E-09  3296   0.751E-05    0.647E-05
DAV:  12    -0.138034980545E+04   -0.23680E-06   -0.11005E-08  3648   0.914E-05    0.808E-05
DAV:  13    -0.138034980551E+04   -0.58848E-07   -0.14162E-09  3072   0.623E-05    0.532E-05
DAV:  14    -0.138034980558E+04   -0.72658E-07   -0.40781E-09  3104   0.806E-05    0.730E-05
DAV:  15    -0.138034980560E+04   -0.22570E-07   -0.82266E-10  3072   0.581E-05    0.515E-05
DAV:  16    -0.138034980561E+04   -0.92841E-08   -0.44747E-10  3008   0.460E-05
  42 F= -.13995630E+04 E0= -.13995630E+04  d E =-.314991E-03  mag=    -0.0000
       N       E                     dE             d eps       ncg     rms          rms(c)
DAV:   1    -0.138034958775E+04    0.21785E-03   -0.79143E-02  4992   0.179E-01    0.114E-01
DAV:   2    -0.138034946860E+04    0.11915E-03   -0.11186E-03  5216   0.216E-02    0.640E-02
DAV:   3    -0.138034944265E+04    0.25957E-04   -0.46905E-04  5312   0.128E-02    0.213E-02
DAV:   4    -0.138034943274E+04    0.99053E-05   -0.81409E-05  5440   0.597E-03    0.102E-02
DAV:   5    -0.138034943338E+04   -0.64290E-06   -0.80106E-06  5184   0.228E-03    0.270E-03
DAV:   6    -0.138034943361E+04   -0.23119E-06   -0.99589E-07  5504   0.978E-04    0.118E-03
DAV:   7    -0.138034943400E+04   -0.38106E-06   -0.15094E-07  5056   0.393E-04    0.482E-04
DAV:   8    -0.138034943436E+04   -0.36336E-06   -0.48113E-08  4544   0.221E-04    0.264E-04
DAV:   9    -0.138034943477E+04   -0.41489E-06   -0.20466E-08  3936   0.172E-04    0.155E-04
DAV:  10    -0.138034943523E+04   -0.45182E-06   -0.28495E-08  4096   0.195E-04    0.107E-04
DAV:  11    -0.138034943547E+04   -0.24082E-06   -0.18249E-08  3904   0.201E-04    0.726E-05
DAV:  12    -0.138034943568E+04   -0.21562E-06   -0.18944E-08  3904   0.200E-04    0.578E-05
DAV:  13    -0.138034943580E+04   -0.12011E-06   -0.82307E-09  3392   0.139E-04    0.378E-05
DAV:  14    -0.138034943590E+04   -0.10031E-06   -0.48901E-09  3392   0.883E-05    0.285E-05
DAV:  15    -0.138034943594E+04   -0.38854E-07   -0.11680E-09  3072   0.611E-05    0.252E-05
DAV:  16    -0.138034943597E+04   -0.24840E-07    0.32784E-11  2944   0.355E-05    0.115E-05
DAV:  17    -0.138034943600E+04   -0.33644E-07   -0.22399E-11  3072   0.356E-05    0.237E-05
DAV:  18    -0.138034943601E+04   -0.10041E-07    0.40645E-10  2944   0.215E-05    0.201E-05
DAV:  19    -0.138034943601E+04   -0.22847E-08    0.58791E-10  2816   0.168E-05
  43 F= -.13995627E+04 E0= -.13995627E+04  d E =0.341759E-03  mag=     0.0000
       N       E                     dE             d eps       ncg     rms          rms(c)
DAV:   1    -0.138034920572E+04    0.23029E-03   -0.82360E-02  4992   0.198E-01    0.127E-01
DAV:   2    -0.138034906981E+04    0.13592E-03   -0.17172E-03  5312   0.282E-02    0.744E-02
DAV:   3    -0.138034902978E+04    0.40028E-04   -0.78654E-04  5312   0.180E-02    0.282E-02
DAV:   4    -0.138034901274E+04    0.17044E-04   -0.11144E-04  5312   0.657E-03    0.154E-02
DAV:   5    -0.138034901224E+04    0.49421E-06   -0.17959E-05  5888   0.303E-03    0.330E-03
DAV:   6    -0.138034901215E+04    0.91415E-07   -0.13183E-06  4768   0.102E-03    0.142E-03
DAV:   7    -0.138034901235E+04   -0.20080E-06   -0.35205E-07  5376   0.585E-04    0.597E-04
DAV:   8    -0.138034901260E+04   -0.25246E-06   -0.53844E-08  4896   0.318E-04    0.351E-04
DAV:   9    -0.138034901292E+04   -0.31406E-06   -0.17787E-08  3840   0.230E-04    0.195E-04
DAV:  10    -0.138034901329E+04   -0.36763E-06   -0.26465E-08  4192   0.252E-04    0.128E-04
DAV:  11    -0.138034901355E+04   -0.26442E-06   -0.18429E-08  4000   0.176E-04    0.104E-04
DAV:  12    -0.138034901370E+04   -0.15167E-06   -0.45036E-09  3328   0.904E-05    0.616E-05
DAV:  13    -0.138034901384E+04   -0.14117E-06   -0.59208E-09  3488   0.838E-05    0.376E-05
DAV:  14    -0.138034901390E+04   -0.57800E-07   -0.22322E-09  3104   0.743E-05    0.282E-05
DAV:  15    -0.138034901395E+04   -0.45271E-07   -0.17996E-09  3104   0.630E-05    0.153E-05
DAV:  16    -0.138034901397E+04   -0.22512E-07   -0.72601E-10  3072   0.442E-05    0.115E-05
DAV:  17    -0.138034901398E+04   -0.96916E-08   -0.19531E-11  3072   0.280E-05
  44 F= -.13995622E+04 E0= -.13995622E+04  d E =0.485074E-03  mag=    -0.0000
       N       E                     dE             d eps       ncg     rms          rms(c)
DAV:   1    -0.138034992561E+04   -0.91164E-03   -0.74885E-02  4928   0.170E-01    0.905E-02
DAV:   2    -0.138034990412E+04    0.21487E-04   -0.68310E-04  4960   0.160E-02    0.536E-02
DAV:   3    -0.138034989442E+04    0.97071E-05   -0.24707E-04  5344   0.104E-02    0.150E-02
DAV:   4    -0.138034988981E+04    0.46097E-05   -0.29781E-05  4544   0.362E-03    0.884E-03
DAV:   5    -0.138034988951E+04    0.29833E-06   -0.12199E-05  4928   0.229E-03    0.169E-03
DAV:   6    -0.138034988963E+04   -0.12082E-06   -0.71561E-07  4416   0.625E-04    0.862E-04
DAV:   7    -0.138034988978E+04   -0.14823E-06   -0.81911E-08  4480   0.248E-04    0.411E-04
DAV:   8    -0.138034988998E+04   -0.20236E-06   -0.35654E-08  4064   0.194E-04    0.233E-04
DAV:   9    -0.138034989018E+04   -0.19869E-06   -0.14492E-08  3744   0.147E-04    0.119E-04
DAV:  10    -0.138034989036E+04   -0.17976E-06   -0.11091E-08  3648   0.125E-04    0.785E-05
DAV:  11    -0.138034989048E+04   -0.12279E-06   -0.81211E-09  3424   0.117E-04    0.626E-05
DAV:  12    -0.138034989056E+04   -0.79410E-07   -0.55616E-09  3264   0.103E-04    0.378E-05
[...]
DAV:   3    -0.138034783274E+04    0.11430E-03   -0.63462E-04  4864   0.163E-02    0.250E-02
DAV:   4    -0.138034784409E+04   -0.11353E-04   -0.14635E-04  5088   0.535E-03    0.128E-02
DAV:   5    -0.138034784208E+04    0.20150E-05   -0.19723E-05  4544   0.275E-03    0.511E-03
DAV:   6    -0.138034784309E+04   -0.10100E-05   -0.19105E-06  4512   0.826E-04    0.217E-03
DAV:   7    -0.138034784437E+04   -0.12778E-05   -0.56595E-07  4512   0.593E-04    0.532E-04
DAV:   8    -0.138034784540E+04   -0.10303E-05   -0.13947E-07  4512   0.283E-04    0.444E-04
DAV:   9    -0.138034784694E+04   -0.15464E-05   -0.76802E-08  4032   0.205E-04    0.215E-04
DAV:  10    -0.138034784780E+04   -0.86185E-06   -0.31055E-08  4000   0.145E-04    0.181E-04
DAV:  11    -0.138034784866E+04   -0.85126E-06   -0.33940E-08  3936   0.143E-04    0.886E-05
DAV:  12    -0.138034784905E+04   -0.39763E-06   -0.13086E-08  3872   0.115E-04    0.640E-05
DAV:  13    -0.138034784931E+04   -0.25282E-06   -0.68839E-09  3552   0.921E-05    0.374E-05
DAV:  14    -0.138034784946E+04   -0.15902E-06   -0.49733E-09  3424   0.784E-05    0.251E-05
DAV:  15    -0.138034784952E+04   -0.59386E-07   -0.14845E-09  3008   0.532E-05    0.168E-05
DAV:  16    -0.138034784957E+04   -0.41968E-07   -0.15225E-09  3072   0.499E-05    0.128E-05
DAV:  17    -0.138034784958E+04   -0.88767E-08   -0.13205E-10  3072   0.349E-05
  60 F= -.13995611E+04 E0= -.13995611E+04  d E =-.187926E-03  mag=     0.0000
       N       E                     dE             d eps       ncg     rms          rms(c)
DAV:   1    -0.138034769564E+04    0.15393E-03   -0.48434E-01  4416   0.498E-01    0.134E-01
DAV:   2    -0.138034791373E+04   -0.21809E-03   -0.48100E-03  4480   0.460E-02    0.864E-02
DAV:   3    -0.138034780624E+04    0.10748E-03   -0.56515E-04  4736   0.154E-02    0.306E-02
DAV:   4    -0.138034781491E+04   -0.86669E-05   -0.12125E-04  5088   0.542E-03    0.127E-02
DAV:   5    -0.138034781372E+04    0.11888E-05   -0.17056E-05  5120   0.264E-03    0.486E-03
DAV:   6    -0.138034781441E+04   -0.68758E-06   -0.18955E-06  4480   0.828E-04    0.186E-03
DAV:   7    -0.138034781499E+04   -0.58215E-06   -0.36938E-07  4288   0.443E-04    0.596E-04
DAV:   8    -0.138034781548E+04   -0.48640E-06   -0.89576E-08  4352   0.220E-04    0.296E-04
DAV:   9    -0.138034781588E+04   -0.40306E-06   -0.18396E-08  4032   0.115E-04    0.159E-04
DAV:  10    -0.138034781638E+04   -0.50398E-06   -0.24687E-08  4032   0.133E-04    0.120E-04
DAV:  11    -0.138034781658E+04   -0.19511E-06   -0.60862E-09  3552   0.816E-05    0.871E-05
DAV:  12    -0.138034781683E+04   -0.25104E-06   -0.91034E-09  3680   0.765E-05    0.468E-05
DAV:  13    -0.138034781699E+04   -0.16484E-06   -0.63170E-09  3552   0.659E-05    0.308E-05
DAV:  14    -0.138034781706E+04   -0.65716E-07   -0.17064E-09  3072   0.576E-05    0.224E-05
DAV:  15    -0.138034781710E+04   -0.35972E-07   -0.12296E-09  3072   0.549E-05    0.152E-05
DAV:  16    -0.138034781712E+04   -0.19834E-07   -0.56687E-10  3040   0.403E-05    0.997E-06
DAV:  17    -0.138034781713E+04   -0.10215E-07    0.50814E-11  3040   0.280E-05    0.726E-06
DAV:  18    -0.138034781713E+04   -0.27212E-08    0.31956E-10  2880   0.198E-05
  61 F= -.13995609E+04 E0= -.13995609E+04  d E =0.249410E-03  mag=     0.0000
       N       E                     dE             d eps       ncg     rms          rms(c)
DAV:   1    -0.138034797721E+04   -0.16008E-03   -0.48729E-01  4992   0.535E-01    0.132E-01
DAV:   2    -0.138034828966E+04   -0.31245E-03   -0.55657E-03  5248   0.508E-02    0.910E-02
DAV:   3    -0.138034817405E+04    0.11561E-03   -0.58142E-04  5440   0.167E-02    0.325E-02
DAV:   4    -0.138034818087E+04   -0.68285E-05   -0.16632E-04  5600   0.664E-03    0.115E-02
DAV:   5    -0.138034818004E+04    0.83826E-06   -0.13603E-05  5216   0.231E-03    0.570E-03
DAV:   6    -0.138034818090E+04   -0.85906E-06   -0.19419E-06  5760   0.101E-03    0.193E-03
DAV:   7    -0.138034818188E+04   -0.98231E-06   -0.41107E-07  4640   0.561E-04    0.737E-04
DAV:   8    -0.138034818296E+04   -0.10818E-05   -0.15399E-07  4768   0.260E-04    0.456E-04
DAV:   9    -0.138034818378E+04   -0.82141E-06   -0.29830E-08  3904   0.136E-04    0.267E-04
DAV:  10    -0.138034818509E+04   -0.13088E-05   -0.65852E-08  4032   0.142E-04    0.162E-04
DAV:  11    -0.138034818595E+04   -0.86187E-06   -0.41976E-08  4128   0.120E-04    0.127E-04
DAV:  12    -0.138034818666E+04   -0.70843E-06   -0.33777E-08  3904   0.103E-04    0.745E-05
DAV:  13    -0.138034818701E+04   -0.35147E-06   -0.13098E-08  3552   0.757E-05    0.488E-05
DAV:  14    -0.138034818719E+04   -0.17647E-06   -0.46624E-09  3200   0.628E-05    0.338E-05
DAV:  15    -0.138034818729E+04   -0.10297E-06   -0.30121E-09  3104   0.599E-05    0.229E-05
DAV:  16    -0.138034818736E+04   -0.66691E-07   -0.17265E-09  3072   0.457E-05    0.156E-05
DAV:  17    -0.138034818739E+04   -0.31869E-07   -0.58738E-10  3072   0.347E-05    0.921E-06
DAV:  18    -0.138034818740E+04   -0.12005E-07   -0.27960E-11  3072   0.281E-05    0.714E-06
DAV:  19    -0.138034818741E+04   -0.66211E-08    0.40183E-10  3008   0.178E-05
  62 F= -.13995614E+04 E0= -.13995614E+04  d E =-.478820E-03  mag=     0.0000
       N       E                     dE             d eps       ncg     rms          rms(c)
DAV:   1    -0.138034783959E+04    0.34782E-03   -0.48421E-01  4992   0.538E-01    0.136E-01
DAV:   2    -0.138034799049E+04   -0.15090E-03   -0.41010E-03  5280   0.447E-02    0.866E-02
DAV:   3    -0.138034788785E+04    0.10263E-03   -0.60890E-04  5472   0.173E-02    0.251E-02
DAV:   4    -0.138034789448E+04   -0.66270E-05   -0.12133E-04  5888   0.577E-03    0.112E-02
DAV:   5    -0.138034789326E+04    0.12254E-05   -0.15641E-05  5024   0.242E-03    0.447E-03
DAV:   6    -0.138034789392E+04   -0.66802E-06   -0.15346E-06  5088   0.922E-04    0.188E-03
DAV:   7    -0.138034789482E+04   -0.89713E-06   -0.44600E-07  4704   0.636E-04    0.535E-04
DAV:   8    -0.138034789554E+04   -0.71734E-06   -0.12609E-07  4832   0.294E-04    0.415E-04
DAV:   9    -0.138034789640E+04   -0.86412E-06   -0.39236E-08  3936   0.171E-04    0.204E-04
DAV:  10    -0.138034789715E+04   -0.74985E-06   -0.32865E-08  3968   0.154E-04    0.168E-04
DAV:  11    -0.138034789775E+04   -0.59963E-06   -0.25955E-08  3872   0.128E-04    0.986E-05
DAV:  12    -0.138034789811E+04   -0.35467E-06   -0.11588E-08  3552   0.856E-05    0.653E-05
DAV:  13    -0.138034789835E+04   -0.24609E-06   -0.79134E-09  3424   0.665E-05    0.385E-05
DAV:  14    -0.138034789847E+04   -0.12082E-06   -0.34228E-09  3136   0.541E-05    0.257E-05
DAV:  15    -0.138034789854E+04   -0.63563E-07   -0.18402E-09  3072   0.448E-05    0.201E-05
DAV:  16    -0.138034789858E+04   -0.41298E-07   -0.14308E-09  3104   0.456E-05    0.155E-05
DAV:  17    -0.138034789859E+04   -0.11831E-07   -0.30670E-10  3072   0.374E-05    0.887E-06
DAV:  18    -0.138034789860E+04   -0.67375E-08    0.12965E-10  3008   0.242E-05
  63 F= -.13995611E+04 E0= -.13995611E+04  d E =0.231708E-03  mag=     0.0000
       N       E                     dE             d eps       ncg     rms          rms(c)
DAV:   1    -0.138034801473E+04   -0.11614E-03   -0.48435E-01  4992   0.516E-01    0.136E-01
DAV:   2    -0.138034815453E+04   -0.13981E-03   -0.42567E-03  5184   0.461E-02    0.837E-02
DAV:   3    -0.138034806136E+04    0.93174E-04   -0.62339E-04  5376   0.164E-02    0.270E-02
DAV:   4    -0.138034806763E+04   -0.62676E-05   -0.10197E-04  5696   0.535E-03    0.115E-02
DAV:   5    -0.138034806656E+04    0.10652E-05   -0.13597E-05  5072   0.246E-03    0.439E-03
DAV:   6    -0.138034806684E+04   -0.27890E-06   -0.15730E-06  5056   0.926E-04    0.168E-03
DAV:   7    -0.138034806705E+04   -0.20809E-06   -0.26448E-07  4704   0.477E-04    0.503E-04
DAV:   8    -0.138034806727E+04   -0.21773E-06   -0.74479E-08  4608   0.253E-04    0.291E-04
DAV:   9    -0.138034806746E+04   -0.19169E-06   -0.13623E-08  3648   0.127E-04    0.175E-04
DAV:  10    -0.138034806770E+04   -0.23856E-06   -0.14536E-08  3712   0.139E-04    0.102E-04
DAV:  11    -0.138034806785E+04   -0.14846E-06   -0.87699E-09  3520   0.106E-04    0.754E-05
DAV:  12    -0.138034806798E+04   -0.13498E-06   -0.60566E-09  3328   0.847E-05    0.518E-05
DAV:  13    -0.138034806808E+04   -0.94064E-07   -0.40904E-09  3168   0.621E-05    0.341E-05
DAV:  14    -0.138034806814E+04   -0.64028E-07   -0.25571E-09  3104   0.513E-05    0.207E-05
DAV:  15    -0.138034806817E+04   -0.34241E-07   -0.14781E-09  3072   0.432E-05    0.155E-05
DAV:  16    -0.138034806820E+04   -0.21580E-07   -0.94196E-10  3072   0.433E-05    0.103E-05
DAV:  17    -0.138034806820E+04   -0.65047E-08   -0.32970E-10  3040   0.357E-05
  64 F= -.13995611E+04 E0= -.13995611E+04  d E =0.494776E-04  mag=    -0.0000
       N       E                     dE             d eps       ncg     rms          rms(c)
DAV:   1    -0.138034802266E+04    0.45531E-04   -0.45982E-01  5056   0.521E-01    0.127E-01
DAV:   2    -0.138034835959E+04   -0.33692E-03   -0.60586E-03  5408   0.459E-02    0.897E-02
DAV:   3    -0.138034824255E+04    0.11704E-03   -0.65699E-04  5600   0.198E-02    0.295E-02
DAV:   4    -0.138034825248E+04   -0.99296E-05   -0.16297E-04  6016   0.806E-03    0.132E-02
DAV:   5    -0.138034825082E+04    0.16623E-05   -0.18346E-05  5760   0.318E-03    0.619E-03
DAV:   6    -0.138034825113E+04   -0.31359E-06   -0.25126E-06  5520   0.133E-03    0.215E-03
DAV:   7    -0.138034825156E+04   -0.43419E-06   -0.42548E-07  5056   0.763E-04    0.952E-04
DAV:   8    -0.138034825206E+04   -0.50050E-06   -0.21458E-07  5552   0.572E-04    0.474E-04
DAV:   9    -0.138034825241E+04   -0.34762E-06   -0.54035E-08  4272   0.270E-04    0.335E-04
DAV:  10    -0.138034825294E+04   -0.53312E-06   -0.28841E-08  3776   0.242E-04    0.184E-04
DAV:  11    -0.138034825340E+04   -0.46050E-06   -0.34298E-08  4320   0.260E-04    0.127E-04
DAV:  12    -0.138034825368E+04   -0.27580E-06   -0.19461E-08  3936   0.173E-04    0.935E-05
DAV:  13    -0.138034825384E+04   -0.16043E-06   -0.45889E-09  3360   0.916E-05    0.617E-05
DAV:  14    -0.138034825402E+04   -0.17745E-06   -0.62635E-09  3376   0.938E-05    0.368E-05
DAV:  15    -0.138034825408E+04   -0.61191E-07   -0.23600E-09  3136   0.704E-05    0.274E-05
DAV:  16    -0.138034825412E+04   -0.39698E-07   -0.10118E-09  3072   0.492E-05    0.195E-05
DAV:  17    -0.138034825415E+04   -0.28042E-07   -0.75396E-10  3072   0.373E-05    0.204E-05
DAV:  18    -0.138034825416E+04   -0.90513E-08   -0.10170E-10  3072   0.332E-05
  65 F= -.13995615E+04 E0= -.13995615E+04  d E =-.420005E-03  mag=    -0.0000
       N       E                     dE             d eps       ncg     rms          rms(c)
DAV:   1    -0.138034859804E+04   -0.34389E-03   -0.48903E-01  5120   0.484E-01    0.144E-01
DAV:   2    -0.138034873492E+04   -0.13688E-03   -0.55854E-03  5440   0.445E-02    0.862E-02
DAV:   3    -0.138034860026E+04    0.13465E-03   -0.86442E-04  5440   0.230E-02    0.293E-02
DAV:   4    -0.138034860987E+04   -0.96058E-05   -0.18847E-04  5984   0.896E-03    0.139E-02
DAV:   5    -0.138034860680E+04    0.30693E-05   -0.18639E-05  6016   0.380E-03    0.631E-03
DAV:   6    -0.138034860694E+04   -0.13625E-06   -0.31156E-06  6240   0.159E-03    0.231E-03
DAV:   7    -0.138034860759E+04   -0.65168E-06   -0.50234E-07  5504   0.809E-04    0.117E-03
DAV:   8    -0.138034860849E+04   -0.90073E-06   -0.24215E-07  5696   0.561E-04    0.555E-04
DAV:   9    -0.138034860926E+04   -0.76945E-06   -0.50481E-08  4448   0.254E-04    0.381E-04
DAV:  10    -0.138034861054E+04   -0.12836E-05   -0.79609E-08  4608   0.280E-04    0.245E-04
DAV:  11    -0.138034861165E+04   -0.11079E-05   -0.85922E-08  4384   0.273E-04    0.154E-04
DAV:  12    -0.138034861236E+04   -0.71172E-06   -0.43578E-08  4096   0.193E-04    0.124E-04
DAV:  13    -0.138034861282E+04   -0.45635E-06   -0.18652E-08  3616   0.138E-04    0.799E-05
DAV:  14    -0.138034861312E+04   -0.30172E-06   -0.12793E-08  3584   0.116E-04    0.421E-05
DAV:  15    -0.138034861325E+04   -0.12640E-06   -0.44387E-09  3200   0.976E-05    0.343E-05
DAV:  16    -0.138034861337E+04   -0.12528E-06   -0.40466E-09  3264   0.771E-05    0.248E-05
DAV:  17    -0.138034861343E+04   -0.55166E-07   -0.13219E-09  3072   0.520E-05    0.178E-05
DAV:  18    -0.138034861345E+04   -0.26979E-07   -0.45890E-10  3072   0.407E-05    0.116E-05
DAV:  19    -0.138034861347E+04   -0.15658E-07   -0.14845E-11  3056   0.343E-05    0.124E-05
DAV:  20    -0.138034861347E+04   -0.55152E-08    0.41648E-10  3008   0.183E-05
  66 F= -.13995617E+04 E0= -.13995617E+04  d E =-.214694E-03  mag=    -0.0000
       N       E                     dE             d eps       ncg     rms          rms(c)
DAV:   1    -0.138034851504E+04    0.98432E-04   -0.48737E-01  5056   0.491E-01    0.146E-01
DAV:   2    -0.138034873072E+04   -0.21569E-03   -0.66484E-03  5376   0.482E-02    0.910E-02
DAV:   3    -0.138034857571E+04    0.15502E-03   -0.96066E-04  5504   0.232E-02    0.304E-02
DAV:   4    -0.138034858815E+04   -0.12440E-04   -0.17518E-04  5792   0.807E-03    0.141E-02
DAV:   5    -0.138034858695E+04    0.11957E-05   -0.18934E-05  5664   0.363E-03    0.534E-03
DAV:   6    -0.138034858720E+04   -0.25384E-06   -0.20740E-06  6080   0.150E-03    0.210E-03
DAV:   7    -0.138034858729E+04   -0.84139E-07   -0.48369E-07  5344   0.861E-04    0.925E-04
DAV:   8    -0.138034858744E+04   -0.14910E-06   -0.13789E-07  5536   0.545E-04    0.515E-04
DAV:   9    -0.138034858762E+04   -0.18631E-06   -0.48837E-08  4736   0.385E-04    0.306E-04
DAV:  10    -0.138034858786E+04   -0.23535E-06   -0.23874E-08  4384   0.365E-04    0.189E-04
DAV:  11    -0.138034858813E+04   -0.27209E-06   -0.38975E-08  4736   0.376E-04    0.132E-04
DAV:  12    -0.138034858831E+04   -0.17858E-06   -0.29277E-08  4224   0.225E-04    0.106E-04
DAV:  13    -0.138034858840E+04   -0.91793E-07   -0.48801E-09  3456   0.104E-04    0.752E-05
DAV:  14    -0.138034858851E+04   -0.10358E-06   -0.35192E-09  3360   0.793E-05    0.378E-05
DAV:  15    -0.138034858857E+04   -0.66997E-07   -0.28714E-09  3232   0.773E-05    0.281E-05
DAV:  16    -0.138034858860E+04   -0.30763E-07   -0.14989E-09  3072   0.676E-05    0.191E-05
DAV:  17    -0.138034858864E+04   -0.35201E-07   -0.15304E-09  3104   0.553E-05    0.121E-05
DAV:  18    -0.138034858865E+04   -0.76980E-08   -0.14304E-10  3072   0.342E-05
  67 F= -.13995615E+04 E0= -.13995615E+04  d E =0.170960E-03  mag=    -0.0000
       N       E                     dE             d eps       ncg     rms          rms(c)
DAV:   1    -0.138034769100E+04    0.89763E-03   -0.50025E-01  5120   0.522E-01    0.138E-01
DAV:   2    -0.138034787540E+04   -0.18440E-03   -0.50490E-03  5440   0.472E-02    0.915E-02
DAV:   3    -0.138034773193E+04    0.14347E-03   -0.76905E-04  5568   0.245E-02    0.298E-02
DAV:   4    -0.138034774772E+04   -0.15789E-04   -0.19607E-04  5696   0.898E-03    0.134E-02
DAV:   5    -0.138034774518E+04    0.25433E-05   -0.22193E-05  5792   0.479E-03    0.627E-03
DAV:   6    -0.138034774547E+04   -0.29002E-06   -0.35944E-06  6272   0.180E-03    0.229E-03
DAV:   7    -0.138034774572E+04   -0.25483E-06   -0.44957E-07  5536   0.886E-04    0.106E-03
DAV:   8    -0.138034774605E+04   -0.32962E-06   -0.15290E-07  5632   0.620E-04    0.462E-04
DAV:   9    -0.138034774640E+04   -0.34487E-06   -0.52608E-08  4960   0.392E-04    0.333E-04
DAV:  10    -0.138034774681E+04   -0.41116E-06   -0.26456E-08  4064   0.381E-04    0.179E-04
DAV:  11    -0.138034774721E+04   -0.39906E-06   -0.45551E-08  4608   0.396E-04    0.139E-04
DAV:  12    -0.138034774742E+04   -0.21856E-06   -0.34220E-08  4352   0.251E-04    0.101E-04
DAV:  13    -0.138034774755E+04   -0.12743E-06   -0.68802E-09  3520   0.146E-04    0.710E-05
DAV:  14    -0.138034774764E+04   -0.90004E-07   -0.45515E-09  3296   0.998E-05    0.427E-05
DAV:  15    -0.138034774771E+04   -0.64567E-07   -0.52264E-09  3232   0.113E-04    0.258E-05
DAV:  16    -0.138034774774E+04   -0.29773E-07   -0.37124E-09  3152   0.963E-05    0.264E-05
DAV:  17    -0.138034774775E+04   -0.17899E-07   -0.12647E-09  3008   0.557E-05    0.166E-05
DAV:  18    -0.138034774776E+04   -0.85856E-08   -0.30239E-10  3008   0.346E-05
  68 F= -.13995610E+04 E0= -.13995610E+04  d E =0.578852E-03  mag=    -0.0000
       N       E                     dE             d eps       ncg     rms          rms(c)
DAV:   1    -0.138034825069E+04   -0.50294E-03   -0.49102E-01  4992   0.568E-01    0.139E-01
DAV:   2    -0.138034832723E+04   -0.76539E-04   -0.39870E-03  5312   0.469E-02    0.880E-02
DAV:   3    -0.138034821723E+04    0.11000E-03   -0.76352E-04  5504   0.198E-02    0.210E-02
DAV:   4    -0.138034822330E+04   -0.60670E-05   -0.12886E-04  5952   0.621E-03    0.107E-02
DAV:   5    -0.138034822335E+04   -0.50233E-07   -0.98429E-06  6016   0.205E-03    0.494E-03
DAV:   6    -0.138034822401E+04   -0.65975E-06   -0.13417E-06  4896   0.123E-03    0.187E-03
DAV:   7    -0.138034822472E+04   -0.71812E-06   -0.46248E-07  5376   0.639E-04    0.631E-04
DAV:   8    -0.138034822537E+04   -0.64279E-06   -0.97621E-08  5056   0.316E-04    0.425E-04
DAV:   9    -0.138034822587E+04   -0.50032E-06   -0.21034E-08  3904   0.183E-04    0.255E-04
DAV:  10    -0.138034822681E+04   -0.94261E-06   -0.59459E-08  4192   0.215E-04    0.167E-04
DAV:  11    -0.138034822713E+04   -0.32151E-06   -0.14397E-08  3680   0.119E-04    0.119E-04
DAV:  12    -0.138034822745E+04   -0.32349E-06   -0.10381E-08  3296   0.928E-05    0.711E-05
DAV:  13    -0.138034822770E+04   -0.24054E-06   -0.87726E-09  3392   0.683E-05    0.559E-05
DAV:  14    -0.138034822786E+04   -0.16511E-06   -0.69987E-09  3168   0.752E-05    0.295E-05
DAV:  15    -0.138034822792E+04   -0.57305E-07   -0.32931E-09  3200   0.799E-05    0.252E-05
DAV:  16    -0.138034822795E+04   -0.30617E-07   -0.14266E-09  3072   0.563E-05    0.188E-05
DAV:  17    -0.138034822796E+04   -0.16385E-07   -0.43087E-10  3040   0.393E-05    0.105E-05
DAV:  18    -0.138034822797E+04   -0.68248E-08    0.61958E-11  3040   0.285E-05
  69 F= -.13995614E+04 E0= -.13995614E+04  d E =-.485901E-03  mag=     0.0000
       N       E                     dE             d eps       ncg     rms          rms(c)
DAV:   1    -0.138034803377E+04    0.19420E-03   -0.49261E-01  4992   0.564E-01    0.142E-01
DAV:   2    -0.138034806995E+04   -0.36181E-04   -0.39527E-03  5312   0.484E-02    0.876E-02
DAV:   3    -0.138034796074E+04    0.10921E-03   -0.80141E-04  5440   0.200E-02    0.255E-02
DAV:   4    -0.138034796739E+04   -0.66480E-05   -0.13714E-04  5888   0.647E-03    0.109E-02
DAV:   5    -0.138034796807E+04   -0.68256E-06   -0.11414E-05  6176   0.248E-03    0.497E-03
DAV:   6    -0.138034796870E+04   -0.63262E-06   -0.15108E-06  5408   0.139E-03    0.206E-03
DAV:   7    -0.138034796917E+04   -0.46600E-06   -0.42139E-07  5216   0.602E-04    0.623E-04
DAV:   8    -0.138034796956E+04   -0.39356E-06   -0.86893E-08  5024   0.319E-04    0.361E-04
DAV:   9    -0.138034796985E+04   -0.28739E-06   -0.13250E-08  3616   0.158E-04    0.224E-04
DAV:  10    -0.138034797027E+04   -0.41879E-06   -0.30882E-08  4128   0.175E-04    0.161E-04
DAV:  11    -0.138034797045E+04   -0.18087E-06   -0.67271E-09  3488   0.103E-04    0.915E-05
DAV:  12    -0.138034797062E+04   -0.17513E-06   -0.72422E-09  3456   0.801E-05    0.678E-05
DAV:  13    -0.138034797075E+04   -0.12487E-06   -0.34309E-09  3264   0.579E-05    0.452E-05
DAV:  14    -0.138034797085E+04   -0.10245E-06   -0.47877E-09  3296   0.705E-05    0.473E-05
DAV:  15    -0.138034797089E+04   -0.37413E-07   -0.12860E-09  2944   0.502E-05    0.415E-05
DAV:  16    -0.138034797092E+04   -0.26528E-07   -0.10300E-09  3072   0.470E-05    0.167E-05
DAV:  17    -0.138034797093E+04   -0.17157E-07   -0.25337E-10  2944   0.342E-05    0.250E-05
DAV:  18    -0.138034797094E+04   -0.89058E-08    0.14909E-10  3008   0.233E-05
  70 F= -.13995609E+04 E0= -.13995609E+04  d E =0.552652E-03  mag=    -0.0000
