       N       E                     dE             d eps       ncg     rms          rms(c)
DAV:   1    -0.132830313317E+04   -0.13283E+04   -0.12920E+00  6304   0.971E-01    0.948E-01
DAV:   2    -0.133003631985E+04   -0.17332E+01   -0.11520E+00  6144   0.943E-01    0.402E-01
DAV:   3    -0.133004601325E+04   -0.96934E-02   -0.39918E-02  6720   0.223E-01    0.275E-01
DAV:   4    -0.133004605753E+04   -0.44272E-04   -0.20191E-03  5568   0.556E-02    0.223E-01
DAV:   5    -0.133004606699E+04   -0.94638E-05   -0.19477E-04  6784   0.177E-02    0.188E-01
DAV:   6    -0.133004607929E+04   -0.12301E-04   -0.20818E-05  6432   0.683E-03    0.163E-01
DAV:   7    -0.133004608898E+04   -0.96924E-05   -0.24038E-05  6592   0.835E-03    0.128E-01
DAV:   8    -0.133004609552E+04   -0.65409E-05   -0.15774E-05  6048   0.623E-03    0.106E-01
DAV:   9    -0.133004610074E+04   -0.52133E-05   -0.42711E-06  4032   0.339E-03    0.905E-02
DAV:  10    -0.133004610868E+04   -0.79393E-05   -0.33465E-05  6528   0.940E-03    0.465E-02
DAV:  11    -0.133004611312E+04   -0.44462E-05   -0.28376E-05  6784   0.847E-03    0.125E-02
DAV:  12    -0.133004611404E+04   -0.91833E-06   -0.22628E-06  3296   0.230E-03
   1 F= -.13490512E+04 E0= -.13490512E+04  d E =-.366379E-21  mag=    -0.0000
