 vasp.5.4.4.18Apr17-6-g9f103f2a35 (build Oct 18 2017 12:32:39) complex          
  
 executed on             LinuxIFC date 2021.10.31  12:03:49
 running on   48 total cores
 distrk:  each k-point on   48 cores,    1 groups
 distr:  one band on NCORES_PER_BAND=   6 cores,    8 groups


--------------------------------------------------------------------------------------------------------


 INCAR:
 POTCAR:    PAW_PBE Zr_sv 04Jan2005               
 POTCAR:    PAW_PBE O 08Apr2002                   
 POTCAR:    PAW_PBE H 15Jun2001                   
 POTCAR:    PAW_PBE C 08Apr2002                   
 POTCAR:    PAW_PBE Zr_sv 04Jan2005               
   VRHFIN =Zr: 4s4p5s4d                                                         
   LEXCH  = PE                                                                  
   EATOM  =  1284.2219 eV,   94.3876 Ry                                         
                                                                                
   TITEL  = PAW_PBE Zr_sv 04Jan2005                                             
   LULTRA =        F    use ultrasoft PP ?                                      
   IUNSCR =        1    unscreen: 0-lin 1-nonlin 2-no                           
   RPACOR =    2.200    partial core radius                                     
   POMASS =   91.224; ZVAL   =   12.000    mass and valenz                      
   RCORE  =    2.500    outmost cutoff radius                                   
   RWIGS  =    3.070; RWIGS  =    1.625    wigner-seitz radius (au A)           
   ENMAX  =  229.898; ENMIN  =  172.424 eV                                      
   ICORE  =        3    local potential                                         
   LCOR   =        T    correct aug charges                                     
   LPAW   =        T    paw PP                                                  
   EAUG   =  461.257                                                            
   DEXC   =    0.000                                                            
   RMAX   =    2.561    core radius for proj-oper                               
   RAUG   =    1.300    factor for augmentation sphere                          
   RDEP   =    2.597    radius for radial grids                                 
   RDEPT  =    2.007    core radius for aug-charge                              
                                                                                
   Atomic configuration                                                         
   11 entries                                                                   
     n  l   j            E        occ.                                          
     1  0  0.50    -17820.0161   2.0000                                         
     2  0  0.50     -2467.0882   2.0000                                         
     2  1  1.50     -2199.6095   6.0000                                         
     3  0  0.50      -402.4863   2.0000                                         
     3  1  1.50      -315.3675   6.0000                                         
     3  2  2.50      -172.4472  10.0000                                         
     4  0  0.50       -52.4146   2.0000                                         
     5  0  0.50        -3.8421   1.0000                                         
     4  1  1.50       -30.5054   6.0000                                         
     4  2  2.50        -2.3341   3.0000                                         
     4  3  2.50        -1.3606   0.0000                                         
   Description                                                                  
     l       E           TYP  RCUT    TYP  RCUT                                 
     0    -52.4145962     23  2.200                                             
     0     -3.8421270     23  2.500                                             
     1    -30.5053914     23  2.200                                             
     1     20.4087390     23  2.200                                             
     2     -2.3340816     23  2.500                                             
     2     -0.6120942     23  2.500                                             
     3     -4.0817478     23  2.500                                             
  local pseudopotential read in
  partial core-charges read in
  partial kinetic energy density read in
  atomic valenz-charges read in
  non local Contribution for L=           0  read in
    real space projection operators read in
  non local Contribution for L=           0  read in
    real space projection operators read in
  non local Contribution for L=           1  read in
    real space projection operators read in
  non local Contribution for L=           1  read in
    real space projection operators read in
  non local Contribution for L=           2  read in
    real space projection operators read in
  non local Contribution for L=           2  read in
    real space projection operators read in
    PAW grid and wavefunctions read in
 
   number of l-projection  operators is LMAX  =           6
   number of lm-projection operators is LMMAX =          18
 
 POTCAR:    PAW_PBE O 08Apr2002                   
   VRHFIN =O: s2p4                                                              
   LEXCH  = PE                                                                  
   EATOM  =   432.3788 eV,   31.7789 Ry                                         
                                                                                
   TITEL  = PAW_PBE O 08Apr2002                                                 
   LULTRA =        F    use ultrasoft PP ?                                      
   IUNSCR =        1    unscreen: 0-lin 1-nonlin 2-no                           
   RPACOR =    1.200    partial core radius                                     
   POMASS =   16.000; ZVAL   =    6.000    mass and valenz                      
   RCORE  =    1.520    outmost cutoff radius                                   
   RWIGS  =    1.550; RWIGS  =    0.820    wigner-seitz radius (au A)           
   ENMAX  =  400.000; ENMIN  =  300.000 eV                                      
   ICORE  =        2    local potential                                         
   LCOR   =        T    correct aug charges                                     
   LPAW   =        T    paw PP                                                  
   EAUG   =  605.392                                                            
   DEXC   =    0.000                                                            
   RMAX   =    1.553    core radius for proj-oper                               
   RAUG   =    1.300    factor for augmentation sphere                          
   RDEP   =    1.550    radius for radial grids                                 
   RDEPT  =    1.329    core radius for aug-charge                              
                                                                                
   Atomic configuration                                                         
    4 entries                                                                   
     n  l   j            E        occ.                                          
     1  0  0.50      -514.6923   2.0000                                         
     2  0  0.50       -23.9615   2.0000                                         
     2  1  0.50        -9.0305   4.0000                                         
     3  2  1.50        -9.5241   0.0000                                         
   Description                                                                  
     l       E           TYP  RCUT    TYP  RCUT                                 
     0    -23.9615318     23  1.200                                             
     0     -9.5240782     23  1.200                                             
     1     -9.0304911     23  1.520                                             
     1      8.1634956     23  1.520                                             
     2     -9.5240782      7  1.500                                             
  local pseudopotential read in
  partial core-charges read in
  partial kinetic energy density read in
  kinetic energy density of atom read in
  atomic valenz-charges read in
  non local Contribution for L=           0  read in
    real space projection operators read in
  non local Contribution for L=           0  read in
    real space projection operators read in
  non local Contribution for L=           1  read in
    real space projection operators read in
  non local Contribution for L=           1  read in
    real space projection operators read in
    PAW grid and wavefunctions read in
 
   number of l-projection  operators is LMAX  =           4
   number of lm-projection operators is LMMAX =           8
 
 POTCAR:    PAW_PBE H 15Jun2001                   
   VRHFIN =H: ultrasoft test                                                    
   LEXCH  = PE                                                                  
   EATOM  =    12.4884 eV,    0.9179 Ry                                         
                                                                                
   TITEL  = PAW_PBE H 15Jun2001                                                 
   LULTRA =        F    use ultrasoft PP ?                                      
   IUNSCR =        0    unscreen: 0-lin 1-nonlin 2-no                           
   RPACOR =    0.000    partial core radius                                     
   POMASS =    1.000; ZVAL   =    1.000    mass and valenz                      
   RCORE  =    1.100    outmost cutoff radius                                   
   RWIGS  =    0.700; RWIGS  =    0.370    wigner-seitz radius (au A)           
   ENMAX  =  250.000; ENMIN  =  200.000 eV                                      
   RCLOC  =    0.701    cutoff for local pot                                    
   LCOR   =        T    correct aug charges                                     
   LPAW   =        T    paw PP                                                  
   EAUG   =  400.000                                                            
   RMAX   =    1.123    core radius for proj-oper                               
   RAUG   =    1.200    factor for augmentation sphere                          
   RDEP   =    1.112    radius for radial grids                                 
   RDEPT  =    0.926    core radius for aug-charge                              
                                                                                
   Atomic configuration                                                         
    2 entries                                                                   
     n  l   j            E        occ.                                          
     1  0  0.50        -6.4927   1.0000                                         
     2  1  0.50        -3.4015   0.0000                                         
   Description                                                                  
     l       E           TYP  RCUT    TYP  RCUT                                 
     0     -6.4927494     23  1.100                                             
     0      6.8029130     23  1.100                                             
     1     -4.0817478     23  1.100                                             
  local pseudopotential read in
  atomic valenz-charges read in
  non local Contribution for L=           0  read in
    real space projection operators read in
  non local Contribution for L=           0  read in
    real space projection operators read in
  non local Contribution for L=           1  read in
    real space projection operators read in
    PAW grid and wavefunctions read in
 
   number of l-projection  operators is LMAX  =           3
   number of lm-projection operators is LMMAX =           5
 
 POTCAR:    PAW_PBE C 08Apr2002                   
   VRHFIN =C: s2p2                                                              
   LEXCH  = PE                                                                  
   EATOM  =   147.1560 eV,   10.8157 Ry                                         
                                                                                
   TITEL  = PAW_PBE C 08Apr2002                                                 
   LULTRA =        F    use ultrasoft PP ?                                      
   IUNSCR =        1    unscreen: 0-lin 1-nonlin 2-no                           
   RPACOR =    1.200    partial core radius                                     
   POMASS =   12.011; ZVAL   =    4.000    mass and valenz                      
   RCORE  =    1.500    outmost cutoff radius                                   
   RWIGS  =    1.630; RWIGS  =    0.863    wigner-seitz radius (au A)           
   ENMAX  =  400.000; ENMIN  =  300.000 eV                                      
   ICORE  =        2    local potential                                         
   LCOR   =        T    correct aug charges                                     
   LPAW   =        T    paw PP                                                  
   EAUG   =  644.873                                                            
   DEXC   =    0.000                                                            
   RMAX   =    1.529    core radius for proj-oper                               
   RAUG   =    1.300    factor for augmentation sphere                          
   RDEP   =    1.501    radius for radial grids                                 
   RDEPT  =    1.300    core radius for aug-charge                              
                                                                                
   Atomic configuration                                                         
    4 entries                                                                   
     n  l   j            E        occ.                                          
     1  0  0.50      -273.3789   2.0000                                         
     2  0  0.50       -13.7508   2.0000                                         
     2  1  0.50        -5.2854   2.0000                                         
     3  2  1.50        -5.4423   0.0000                                         
   Description                                                                  
     l       E           TYP  RCUT    TYP  RCUT                                 
     0    -13.7508458     23  1.200                                             
     0     -8.2022199     23  1.200                                             
     1     -5.2854383     23  1.500                                             
     1     34.0145650     23  1.500                                             
     2     -5.4423304      7  1.500                                             
  local pseudopotential read in
  partial core-charges read in
  partial kinetic energy density read in
  atomic valenz-charges read in
  non local Contribution for L=           0  read in
    real space projection operators read in
  non local Contribution for L=           0  read in
    real space projection operators read in
  non local Contribution for L=           1  read in
    real space projection operators read in
  non local Contribution for L=           1  read in
    real space projection operators read in
    PAW grid and wavefunctions read in
 
   number of l-projection  operators is LMAX  =           4
   number of lm-projection operators is LMMAX =           8
 
 Optimization of the real space projectors (new method)

 maximal supplied QI-value         = 15.12
 optimisation between [QCUT,QGAM] = [ 11.34, 22.83] = [ 36.00,145.93] Ry 
 Optimized for a Real-space Cutoff    1.47 Angstroem

   l    n(q)    QCUT    max X(q) W(low)/X(q) W(high)/X(q)  e(spline) 
   0     10    11.338    12.107    0.38E-04    0.13E-04    0.27E-07
   0     10    11.338     9.948    0.69E-04    0.30E-04    0.38E-07
   1     10    11.338     3.563    0.26E-04    0.18E-04    0.40E-07
   1     10    11.338     4.524    0.25E-03    0.39E-04    0.44E-06
   2      9    11.338    87.261    0.26E-03    0.91E-05    0.26E-06
   2      9    11.338    70.950    0.25E-03    0.91E-05    0.25E-06
 Optimization of the real space projectors (new method)

 maximal supplied QI-value         = 24.76
 optimisation between [QCUT,QGAM] = [ 11.39, 22.77] = [ 36.31,145.25] Ry 
 Optimized for a Real-space Cutoff    1.00 Angstroem

   l    n(q)    QCUT    max X(q) W(low)/X(q) W(high)/X(q)  e(spline) 
   0      7    11.387    20.381    0.39E-03    0.13E-02    0.15E-06
   0      7    11.387    15.268    0.42E-03    0.14E-02    0.17E-06
   1      6    11.387     5.964    0.41E-03    0.11E-02    0.17E-06
   1      6    11.387     5.382    0.39E-03    0.87E-03    0.15E-06
 Optimization of the real space projectors (new method)

 maximal supplied QI-value         = 34.20
 optimisation between [QCUT,QGAM] = [ 11.29, 22.57] = [ 35.68,142.71] Ry 
 Optimized for a Real-space Cutoff    1.16 Angstroem

   l    n(q)    QCUT    max X(q) W(low)/X(q) W(high)/X(q)  e(spline) 
   0      8    11.287    19.460    0.40E-03    0.73E-03    0.16E-06
   0      8    11.287    12.209    0.38E-03    0.70E-03    0.15E-06
   1      7    11.287     4.655    0.22E-03    0.25E-04    0.22E-06
 Optimization of the real space projectors (new method)

 maximal supplied QI-value         = 25.13
 optimisation between [QCUT,QGAM] = [ 11.31, 22.87] = [ 35.82,146.48] Ry 
 Optimized for a Real-space Cutoff    1.00 Angstroem

   l    n(q)    QCUT    max X(q) W(low)/X(q) W(high)/X(q)  e(spline) 
   0      7    11.310   115.676    0.43E-03    0.13E-02    0.19E-06
   0      7    11.310    87.132    0.43E-03    0.13E-02    0.18E-06
   1      6    11.310     4.429    0.42E-03    0.74E-03    0.11E-06
   1      6    11.310     2.733    0.34E-03    0.55E-03    0.92E-07
  PAW_PBE Zr_sv 04Jan2005               :
 energy of atom  1       EATOM=-1284.2219
 kinetic energy error for atom=    0.0049 (will be added to EATOM!!)
  PAW_PBE O 08Apr2002                   :
 energy of atom  2       EATOM= -432.3788
 kinetic energy error for atom=    0.0224 (will be added to EATOM!!)
  PAW_PBE H 15Jun2001                   :
 energy of atom  3       EATOM=  -12.4884
 kinetic energy error for atom=    0.0020 (will be added to EATOM!!)
  PAW_PBE C 08Apr2002                   :
 energy of atom  4       EATOM= -147.1560
 kinetic energy error for atom=    0.0076 (will be added to EATOM!!)
 
 
 POSCAR: Zr   O    H    C                        
  positions in direct lattice
  velocities in cartesian coordinates
  No initial velocities read in
 exchange correlation table for  LEXCH =        8
   RHO(1)=    0.500       N(1)  =     2000
   RHO(2)=  100.500       N(2)  =     4000

 VTST: version 3.1, (03/28/14)

 CHAIN: initializing optimizer
 
 OPT: Using Conjugate-Gradient optimizer
 OPT: CG, Init
 OPT: CG, FDSTEP      0.005000
 OPT: CG, MAXMOVE      0.200000
 
 CHAIN: Read ICHAIN            2
 
 POSCAR: Zr   O    H    C                        
  positions in direct lattice
  velocities in cartesian coordinates
  No initial velocities read in
 CHAIN: Running the Dimer method

 Dimer: -----------------
 Dimer: Input Parameters
 Dimer:   Seed      0
 Dimer: RotMax      4
 Dimer:     dR      0.005000
 Dimer:  FNMax      1.000000
 Dimer:  FNMin      0.010000
 Dimer: -----------------
 


--------------------------------------------------------------------------------------------------------


 ion  position               nearest neighbor table
   1  0.088  0.321  0.038-  78 2.10  62 2.10  50 2.18  74 2.19  61 2.26  54 2.30  16 3.37   6 3.50
                            12 3.52  13 3.65
   2  0.338  0.821  0.038-  79 2.10  63 2.10  51 2.18  75 2.19  58 2.26  55 2.30  13 3.37   7 3.50
                             9 3.52  14 3.65
   3  0.588  0.321  0.038-  80 2.10  64 2.10  52 2.18  76 2.19  59 2.26  56 2.30  14 3.37   8 3.50
                            10 3.52  15 3.65
   4  0.838  0.821  0.038-  81 2.10  65 2.10  53 2.18  77 2.19  60 2.26  57 2.30  15 3.37   5 3.50
                            11 3.52  16 3.65
   5  0.070  0.834  0.049-  82 2.07  66 2.10  65 2.18  58 2.19  57 2.22  70 2.30  12 3.37  17 3.46
                             4 3.50  16 3.52   9 3.65
   6  0.320  0.334  0.049-  83 2.06  67 2.10  62 2.18  59 2.19  54 2.22  71 2.30   9 3.37  18 3.47
                             1 3.50  13 3.52  10 3.65
   7  0.570  0.834  0.049-  84 2.06  68 2.10  63 2.18  60 2.19  55 2.22  72 2.30  10 3.37  19 3.49
                             2 3.50  14 3.52  11 3.65
   8  0.820  0.334  0.049-  85 2.08  69 2.10  64 2.18  61 2.19  56 2.22  73 2.30  11 3.37   3 3.50
                            20 3.51  15 3.52  12 3.65
   9  0.238  0.068  0.057-  62 2.10  86 2.16  67 2.18  70 2.19  75 2.22  58 2.30   6 3.37  17 3.49
                            14 3.50  22 3.51   2 3.52   5 3.65
  10  0.488  0.568  0.057-  63 2.10  87 2.17  68 2.18  71 2.19  76 2.22  59 2.30   7 3.37  18 3.48
                            15 3.50   3 3.52  23 3.52   6 3.65
  11  0.738  0.068  0.057-  64 2.10  69 2.18  88 2.18  72 2.19  77 2.22  60 2.30   8 3.37  19 3.47
                            16 3.50   4 3.52  24 3.52   7 3.65
  12  0.988  0.568  0.057-  65 2.10  66 2.18  89 2.18  73 2.19  74 2.22  61 2.30   5 3.37  13 3.50
                            20 3.52   1 3.52  21 3.52   8 3.65
  13  0.220  0.581  0.068-  51 2.10  66 2.10  79 2.18  54 2.19  90 2.26  71 2.26  74 2.30   2 3.37
                            26 3.49  21 3.49  12 3.50  18 3.50   6 3.52   1 3.65
  14  0.470  0.081  0.068-  52 2.10  67 2.10  80 2.18  55 2.19  72 2.26  91 2.27  75 2.30   3 3.37
                            27 3.48  22 3.49   9 3.50  19 3.52   7 3.52   2 3.65
  15  0.720  0.581  0.068-  53 2.10  68 2.10  81 2.18  56 2.19  73 2.26  92 2.27  76 2.30   4 3.37
                            28 3.50  23 3.50  10 3.50   8 3.52  20 3.53   3 3.65
  16  0.970  0.081  0.068-  50 2.10  69 2.10  78 2.18  57 2.19  70 2.26  93 2.26  77 2.30   1 3.37
                            17 3.50  25 3.50  11 3.50  24 3.51   5 3.52   4 3.65
  17  0.105  0.982  0.171-  94 2.09 110 2.13  82 2.16  70 2.19 106 2.19  93 2.24  86 2.31  32 3.40
                             5 3.46   9 3.49  16 3.50  22 3.52  25 3.54  29 3.67
  18  0.356  0.483  0.171-  95 2.09 111 2.13  83 2.16  71 2.19 107 2.19  90 2.23  87 2.30  29 3.38
                             6 3.47  10 3.48  13 3.50  23 3.52  26 3.54  30 3.65
  19  0.608  0.984  0.171-  96 2.09 112 2.14  84 2.18  72 2.20 108 2.20  91 2.23  88 2.28  30 3.39
                            11 3.47  24 3.49   7 3.49  27 3.52  14 3.52  31 3.69
  20  0.856  0.483  0.173-  97 2.10 113 2.11  85 2.19 109 2.20  92 2.23  73 2.23  89 2.31  31 3.34
                            28 3.49   8 3.51  12 3.52  21 3.52  15 3.53  32 3.63
  21  0.089  0.495  0.182- 114 2.09  98 2.11  97 2.17  90 2.18  74 2.24  89 2.27 102 2.29  25 3.37
                            13 3.49  32 3.51  20 3.52  12 3.52  26 3.62  33 3.65
  22  0.339  0.995  0.182- 115 2.10  99 2.11  94 2.17  91 2.19  75 2.23 103 2.25  86 2.27  26 3.38
                            14 3.49  29 3.51   9 3.51  17 3.52  34 3.60  27 3.62
  23  0.589  0.492  0.182- 100 2.08 116 2.12  95 2.17  92 2.18  76 2.23  87 2.29 104 2.31  27 3.37
                            35 3.49  15 3.50  18 3.52  10 3.52  30 3.56  28 3.69
  24  0.838  0.995  0.183- 101 2.10 117 2.10  96 2.18  93 2.18  77 2.25  88 2.26 105 2.29  28 3.37
                            19 3.49  16 3.51  11 3.52  31 3.54  36 3.61  25 3.64
  25  0.004  0.230  0.191-  78 2.10  97 2.10 121 2.16  98 2.19 105 2.22  93 2.29 106 2.30  21 3.37
                            37 3.44  16 3.50  17 3.54  29 3.55  24 3.64  36 3.67
  26  0.253  0.730  0.191-  94 2.10  79 2.10 102 2.18  99 2.20 118 2.20 107 2.29  90 2.29  22 3.38
                            38 3.45  13 3.49  18 3.54  30 3.54  21 3.62  33 3.65
  27  0.504  0.228  0.191-  80 2.09  95 2.12 119 2.16 100 2.19 103 2.20  91 2.29 108 2.30  23 3.37
                            14 3.48  39 3.48  19 3.52  31 3.58  22 3.62  34 3.66
  28  0.758  0.729  0.191-  81 2.09  96 2.12 101 2.16 120 2.23 104 2.23 109 2.24  92 2.30  24 3.37
                            32 3.48  20 3.49  35 3.50  15 3.50  40 3.59  23 3.69
  29  0.239  0.241  0.200-  98 2.10  83 2.10 122 2.19 103 2.21 111 2.22  86 2.22 106 2.28  18 3.38
                            37 3.41  42 3.50  22 3.51  25 3.55  34 3.62  17 3.67
  30  0.488  0.743  0.200-  99 2.08  84 2.09 112 2.19 123 2.20  87 2.21 104 2.26 107 2.30  19 3.39
                            38 3.45  43 3.49  35 3.49  26 3.54  23 3.56  18 3.65
  31  0.741  0.245  0.204- 100 2.11  85 2.12 113 2.13 105 2.22 124 2.27  88 2.29 108 2.31  20 3.34
                            39 3.48  24 3.54  44 3.54  27 3.58  36 3.64  19 3.69
  32  0.988  0.740  0.203- 101 2.11  82 2.14 110 2.19 102 2.21 125 2.22  89 2.23 109 2.26  17 3.40
                            41 3.46  28 3.48  21 3.51  40 3.54  33 3.62  20 3.63
  33  0.123  0.642  0.314- 142 2.02 126 2.16 138 2.17 114 2.21 125 2.24 118 2.37 102 2.42  45 3.22
                            41 3.47  38 3.53  32 3.62  21 3.65  26 3.65  46 3.70
  34  0.370  0.139  0.312- 143 2.03 127 2.13 139 2.18 115 2.19 122 2.24 119 2.37 103 2.42  46 3.22
                            42 3.50  39 3.52  22 3.60  29 3.62  47 3.63  27 3.66
  35  0.621  0.647  0.304- 140 2.14 123 2.18 116 2.19 104 2.19 128 2.20 120 2.25 144 2.26  49 3.22
                            43 3.43  47 3.46  23 3.49  30 3.49  28 3.50  40 3.58  48 3.71
  36  0.874  0.137  0.314- 145 2.02 129 2.11 141 2.14 117 2.21 124 2.33 105 2.37 121 2.48  48 3.22
                            44 3.39  37 3.55  24 3.61  31 3.64  25 3.67  45 3.79
  37  0.109  0.160  0.312- 130 2.09 121 2.13 122 2.15 106 2.16 129 2.16 134 2.18  29 3.41  25 3.44
                            41 3.45  45 3.49  36 3.55  42 3.58
  38  0.357  0.659  0.313- 131 2.10 126 2.15 107 2.16 118 2.16 135 2.16 123 2.17  42 3.44  30 3.45
                            26 3.45  46 3.53  33 3.53  43 3.58
  39  0.604  0.158  0.315- 136 2.07 132 2.11 127 2.15 108 2.18 124 2.19 119 2.22  43 3.43  47 3.44
                            31 3.48  27 3.48  34 3.52  44 3.76
  40  0.858  0.664  0.322- 133 2.13 146 2.18 137 2.18 125 2.19 120 2.19 128 2.31 109 2.35  48 3.45
                            44 3.50  49 3.52  32 3.54  41 3.57  35 3.58  28 3.59
  41  0.026  0.889  0.325- 110 2.05 138 2.15 137 2.16 129 2.16 130 2.19 125 2.29  37 3.45  32 3.46
                            33 3.47  46 3.50  40 3.57
  42  0.274  0.388  0.325- 111 2.06 139 2.13 126 2.14 131 2.24 134 2.25 122 2.30  38 3.44  47 3.47
                            34 3.50  29 3.50  37 3.58
  43  0.523  0.887  0.324- 112 2.06 140 2.14 127 2.14 132 2.18 135 2.26 123 2.30  39 3.43  35 3.43
                            30 3.49  48 3.55  38 3.58
  44  0.789  0.383  0.331- 147 2.08 141 2.09 133 2.12 113 2.18 124 2.23 128 2.25  49 3.19  36 3.39
                            45 3.39  40 3.50  31 3.54  39 3.76
  45  0.014  0.407  0.336- 142 2.02 114 2.06 133 2.18 141 2.23 134 2.26 121 2.30  33 3.22  44 3.39
                            37 3.49  36 3.79
  46  0.258  0.906  0.336- 143 2.02 115 2.07 130 2.15 138 2.26 118 2.29 135 2.31  34 3.22  41 3.50
                            38 3.53  33 3.70
  47  0.504  0.397  0.334- 116 2.09 136 2.10 131 2.17 119 2.21 139 2.22 144 2.23  39 3.44  35 3.46
                            42 3.47  34 3.63  49 3.83
  48  0.758  0.906  0.337- 145 2.01 117 2.06 132 2.18 137 2.24 120 2.33 140 2.36  36 3.22  40 3.45
                            43 3.55  35 3.71
  49  0.699  0.542  0.415- 147 1.92 150 2.07 144 2.07 146 2.11 128 2.20 157 2.40  44 3.19  35 3.22
                            40 3.52  47 3.83
  50  0.024  0.173  0.000-  16 2.10   1 2.18
  51  0.274  0.673  0.000-  13 2.10   2 2.18
  52  0.524  0.173  0.000-  14 2.10   3 2.18
  53  0.774  0.673  0.000-  15 2.10   4 2.18
  54  0.215  0.432  0.016-  13 2.19   6 2.22   1 2.30
  55  0.465  0.932  0.016-  14 2.19   7 2.22   2 2.30
  56  0.715  0.432  0.016-  15 2.19   8 2.22   3 2.30
  57  0.965  0.932  0.016-  16 2.19   5 2.22   4 2.30
  58  0.207  0.891  0.025-   5 2.19   2 2.26   9 2.30
  59  0.457  0.391  0.025-   6 2.19   3 2.26  10 2.30
  60  0.707  0.891  0.025-   7 2.19   4 2.26  11 2.30
  61  0.957  0.391  0.025-   8 2.19   1 2.26  12 2.30
  62  0.197  0.226  0.044-   9 2.10   1 2.10   6 2.18
  63  0.447  0.726  0.044-  10 2.10   2 2.10   7 2.18
  64  0.697  0.226  0.044-  11 2.10   3 2.10   8 2.18
  65  0.947  0.726  0.044-  12 2.10   4 2.10   5 2.18
  66  0.111  0.675  0.062-   5 2.10  13 2.10  12 2.18
  67  0.361  0.175  0.062-   6 2.10  14 2.10   9 2.18
  68  0.611  0.675  0.062-   7 2.10  15 2.10  10 2.18
  69  0.861  0.175  0.062-   8 2.10  16 2.10  11 2.18
  70  0.101  0.010  0.081-  17 2.19   9 2.19  16 2.26   5 2.30
  71  0.351  0.510  0.081-  18 2.19  10 2.19  13 2.26   6 2.30
  72  0.601  0.010  0.081-  11 2.19  19 2.20  14 2.26   7 2.30
  73  0.851  0.510  0.081-  12 2.19  20 2.23  15 2.26   8 2.30
  74  0.093  0.470  0.090-   1 2.19  12 2.22  21 2.24  13 2.30
  75  0.343  0.970  0.090-   2 2.19   9 2.22  22 2.23  14 2.30
  76  0.593  0.470  0.090-   3 2.19  10 2.22  23 2.23  15 2.30
  77  0.843  0.970  0.090-   4 2.19  11 2.22  24 2.25  16 2.30
  78  0.034  0.229  0.106-   1 2.10  25 2.10  16 2.18
  79  0.284  0.729  0.106-   2 2.10  26 2.10  13 2.18
  80  0.534  0.229  0.106-  27 2.09   3 2.10  14 2.18
  81  0.784  0.729  0.106-  28 2.09   4 2.10  15 2.18
  82  0.045  0.833  0.134-   5 2.07  32 2.14  17 2.16
  83  0.296  0.334  0.133-   6 2.06  29 2.10  18 2.16
  84  0.546  0.834  0.133-   7 2.06  30 2.09  19 2.18
  85  0.795  0.333  0.134-   8 2.08  31 2.12  20 2.19
  86  0.231  0.093  0.146-   9 2.16  29 2.22  22 2.27  17 2.31
  87  0.481  0.593  0.147-  10 2.17  30 2.21  23 2.29  18 2.30
  88  0.732  0.094  0.147-  11 2.18  24 2.26  19 2.28  31 2.29
  89  0.982  0.593  0.147-  12 2.18  32 2.23  21 2.27  20 2.31
  90  0.225  0.552  0.160-  21 2.18  18 2.23  13 2.26  26 2.29
  91  0.476  0.051  0.161-  22 2.19  19 2.23  14 2.27  27 2.29
  92  0.725  0.552  0.161-  23 2.18  20 2.23  15 2.27  28 2.30
  93  0.975  0.052  0.161-  24 2.18  17 2.24  16 2.26  25 2.29
  94  0.215  0.890  0.181-  17 2.09  26 2.10  22 2.17
  95  0.464  0.389  0.180-  18 2.09  27 2.12  23 2.17
  96  0.715  0.889  0.181-  19 2.09  28 2.12  24 2.18
  97  0.965  0.390  0.182-  20 2.10  25 2.10  21 2.17
  98  0.130  0.335  0.192-  29 2.10  21 2.11  25 2.19
  99  0.379  0.835  0.193-  30 2.08  22 2.11  26 2.20
 100  0.628  0.335  0.194-  23 2.08  31 2.11  27 2.19
 101  0.879  0.836  0.194-  24 2.10  32 2.11  28 2.16
 102  0.117  0.671  0.215-  26 2.18  32 2.21  21 2.29  33 2.42
 103  0.367  0.169  0.213-  27 2.20  29 2.21  22 2.25  34 2.42
 104  0.618  0.670  0.214-  35 2.19  28 2.23  30 2.26  23 2.31
 105  0.867  0.170  0.217-  31 2.22  25 2.22  24 2.29  36 2.37
 106  0.115  0.130  0.224-  37 2.16  17 2.19  29 2.28  25 2.30
 107  0.363  0.631  0.224-  38 2.16  18 2.19  26 2.29  30 2.30
 108  0.615  0.131  0.225-  39 2.18  19 2.20  27 2.30  31 2.31
 109  0.864  0.632  0.225-  20 2.20  28 2.24  32 2.26  40 2.35
 110  0.047  0.893  0.240-  41 2.05  17 2.13  32 2.19
 111  0.297  0.395  0.241-  42 2.06  18 2.13  29 2.22
 112  0.547  0.893  0.240-  43 2.06  19 2.14  30 2.19
 113  0.798  0.393  0.241-  20 2.11  31 2.13  44 2.18
 114  0.071  0.492  0.269-  45 2.06  21 2.09  33 2.21
 115  0.313  0.992  0.268-  46 2.07  22 2.10  34 2.19
 116  0.560  0.493  0.269-  47 2.09  23 2.12  35 2.19
 117  0.809  0.993  0.269-  48 2.06  24 2.10  36 2.21
 118  0.251  0.750  0.282-  38 2.16  26 2.20  46 2.29  33 2.37
 119  0.496  0.250  0.280-  27 2.16  47 2.21  39 2.22  34 2.37
 120  0.749  0.746  0.284-  40 2.19  28 2.23  35 2.25  48 2.33
 121  0.006  0.252  0.281-  37 2.13  25 2.16  45 2.30  36 2.48
 122  0.245  0.214  0.290-  37 2.15  29 2.19  34 2.24  42 2.30
 123  0.493  0.711  0.290-  38 2.17  35 2.18  30 2.20  43 2.30
 124  0.742  0.218  0.297-  39 2.19  44 2.23  31 2.27  36 2.33
 125  0.994  0.711  0.294-  40 2.19  32 2.22  33 2.24  41 2.29
 126  0.239  0.554  0.329-  42 2.14  38 2.15  33 2.16
 127  0.484  0.051  0.325-  34 2.13  43 2.14  39 2.15
 128  0.730  0.546  0.326-  49 2.20  35 2.20  44 2.25  40 2.31
 129  0.989  0.056  0.328-  36 2.11  37 2.16  41 2.16
 130  0.146  0.003  0.331-  37 2.09  46 2.15  41 2.19
 131  0.397  0.504  0.335-  38 2.10  47 2.17  42 2.24
 132  0.642  1.000  0.335-  39 2.11  48 2.18  43 2.18
 133  0.899  0.502  0.329-  44 2.12  40 2.13  45 2.18
 134  0.138  0.320  0.352-  37 2.18  42 2.25  45 2.26
 135  0.385  0.819  0.351-  38 2.16  43 2.26  46 2.31
 136  0.605  0.302  0.361-  39 2.07  47 2.10
 137  0.890  0.836  0.344-  41 2.16  40 2.18  48 2.24
 138  0.132  0.800  0.356-  41 2.15  33 2.17  46 2.26
 139  0.378  0.298  0.355-  42 2.13  34 2.18  47 2.22
 140  0.626  0.793  0.354-  43 2.14  35 2.14  48 2.36
 141  0.894  0.293  0.355-  44 2.09  36 2.14  45 2.23
 142  0.068  0.543  0.375-  45 2.02  33 2.02
 143  0.316  0.042  0.374-  46 2.02  34 2.03
 144  0.575  0.541  0.378-  49 2.07  47 2.23  35 2.26
 145  0.815  0.042  0.375-  48 2.01  36 2.02
 146  0.800  0.672  0.405- 150 1.20  49 2.11  40 2.18
 147  0.757  0.408  0.415-  49 1.92  44 2.08
 148  0.683  0.564  0.517- 157 1.12
 149  0.689  0.863  0.541- 156 1.10
 150  0.772  0.676  0.451- 146 1.20  49 2.07
 151  0.604  0.894  0.494- 156 1.10
 152  0.710  0.865  0.469- 156 1.10
 153  0.579  0.699  0.531- 158 1.10
 154  0.589  0.705  0.458- 158 1.11
 155  0.755  0.678  0.532- 157 1.10
 156  0.659  0.842  0.500- 151 1.10 149 1.10 152 1.10 158 1.53
 157  0.706  0.647  0.500- 155 1.10 148 1.12 158 1.55  49 2.40
 158  0.627  0.720  0.497- 153 1.10 154 1.11 156 1.53 157 1.55
 
  Warning from LATTYP: Monoclinic adjustement (A1->A3, A2->A1, A3->A2)!
  Warning from LATTYP: Got some problem with cell dimensions!
  Tried to take original basis but could not verify dimensions!
  LATTYP: Found a simple monoclinic cell.
 ALAT       =    18.5584556648
 B/A-ratio  =     1.2917238965
 C/A-ratio  =     1.7011970181
 COS(beta)  =    -0.9496615564
  
  Lattice vectors:
  
 A1 = ( -14.0305058395, -12.1474763861,   0.0000000000)
 A2 = (   0.0000000000,   0.0000000000, -23.9724006653)
 A3 = (  29.1411063110,  12.1474763861,   0.0000000000)


Analysis of symmetry for initial positions (statically):
=====================================================================
 Subroutine PRICEL returns:
 Original cell was already a primitive cell.
 

 Routine SETGRP: Setting up the symmetry group for a 
 simple monoclinic supercell.


 Subroutine GETGRP returns: Found  1 space group operations
 (whereof  1 operations were pure point group operations)
 out of a pool of  4 trial point group operations.


The static configuration has the point symmetry C_1 .


Analysis of symmetry for dynamics (positions and initial velocities):
=====================================================================
 Subroutine PRICEL returns:
 Original cell was already a primitive cell.
 

 Routine SETGRP: Setting up the symmetry group for a 
 simple monoclinic supercell.


 Subroutine GETGRP returns: Found  1 space group operations
 (whereof  1 operations were pure point group operations)
 out of a pool of  4 trial point group operations.


The dynamic configuration has the point symmetry C_1 .


Analysis of constrained symmetry for selective dynamics:
=====================================================================
 Subroutine PRICEL returns:
 Original cell was already a primitive cell.
 

 Routine SETGRP: Setting up the symmetry group for a 
 simple monoclinic supercell.


 Subroutine GETGRP returns: Found  1 space group operations
 (whereof  1 operations were pure point group operations)
 out of a pool of  4 trial point group operations.


The constrained configuration has the point symmetry C_1 .


Analysis of structural, dynamic, and magnetic symmetry:
=====================================================================
 Subroutine PRICEL returns:
 Original cell was already a primitive cell.
 

 Routine SETGRP: Setting up the symmetry group for a 
 simple monoclinic supercell.


 Subroutine GETGRP returns: Found  1 space group operations
 (whereof  1 operations were pure point group operations)
 out of a pool of  4 trial point group operations.


The magnetic configuration has the point symmetry C_1 .


 Subroutine INISYM returns: Found  1 space group operations
 (whereof  1 operations are pure point group operations),
 and found     1 'primitive' translations

 
 
 KPOINTS: Monkhorst Pack                          

Automatic generation of k-mesh.
Space group operators:
 irot       det(A)        alpha          n_x          n_y          n_z        tau_x        tau_y        tau_z
    1     1.000000     0.000001     1.000000     0.000000     0.000000     0.000000     0.000000     0.000000
 
 Subroutine IBZKPT returns following result:
 ===========================================
 
 Found      2 irreducible k-points:
 
 Following reciprocal coordinates:
            Coordinates               Weight
  0.250000  0.250000  0.000000      2.000000
 -0.250000  0.250000  0.000000      2.000000
 
 Following cartesian coordinates:
            Coordinates               Weight
  0.016545  0.022051  0.000000      2.000000
 -0.016545  0.019109  0.000000      2.000000
 


--------------------------------------------------------------------------------------------------------




 Dimension of arrays:
   k-points           NKPTS =      2   k-points in BZ     NKDIM =      2   number of bands    NBANDS=    640
   number of dos      NEDOS =    301   number of ions     NIONS =    158
   non local maximal  LDIM  =      6   non local SUM 2l+1 LMDIM =     18
   total plane-waves  NPLWV = 823200
   max r-space proj   IRMAX =   2561   max aug-charges    IRDMAX=   7978
   dimension x,y,z NGX =    84 NGY =   70 NGZ =  140
   dimension x,y,z NGXF=   168 NGYF=  140 NGZF=  280
   support grid    NGXF=   168 NGYF=  140 NGZF=  280
   ions per type =              49  98   8   3
   NGX,Y,Z   is equivalent  to a cutoff of   9.24,  9.54,  9.71 a.u.
   NGXF,Y,Z  is equivalent  to a cutoff of  18.48, 19.08, 19.42 a.u.

 SYSTEM =  mZrO2_n111_dimer                        
 POSCAR =  Zr   O    H    C                        

 Startparameter for this run:
   NWRITE =      2    write-flag & timer
   PREC   = normal    normal or accurate (medium, high low for compatibility)
   ISTART =      1    job   : 0-new  1-cont  2-samecut
   ICHARG =      1    charge: 1-file 2-atom 10-const
   ISPIN  =      2    spin polarized calculation?
   LNONCOLLINEAR =      F non collinear calculations
   LSORBIT =      F    spin-orbit coupling
   INIWAV =      1    electr: 0-lowe 1-rand  2-diag
   LASPH  =      F    aspherical Exc in radial PAW
   METAGGA=      F    non-selfconsistent MetaGGA calc.

 Electronic Relaxation 1
   ENCUT  =  500.0 eV  36.75 Ry    6.06 a.u.  27.55 22.24 43.71*2*pi/ulx,y,z
   ENINI  =  500.0     initial cutoff
   ENAUG  =  644.9 eV  augmentation charge cutoff
   NELM   =    300;   NELMIN=  2; NELMDL=  0     # of ELM steps 
   EDIFF  = 0.1E-05   stopping-criterion for ELM
   LREAL  =      T    real-space projection
   NLSPLINE    = F    spline interpolate recip. space projectors
   LCOMPAT=      F    compatible to vasp.4.4
   GGA_COMPAT  = T    GGA compatible to vasp.4.4-vasp.4.6
   LMAXPAW     = -100 max onsite density
   LMAXMIX     =    2 max onsite mixed and CHGCAR
   VOSKOWN=      0    Vosko Wilk Nusair interpolation
   ROPT   =   -0.00050  -0.00050  -0.00050  -0.00050
 Ionic relaxation
   EDIFFG = -.5E-01   stopping-criterion for IOM
   NSW    =      0    number of steps for IOM
   NBLOCK =      1;   KBLOCK =      1    inner block; outer block 
   IBRION =     -1    ionic relax: 0-MD 1-quasi-New 2-CG
   NFREE  =      0    steps in history (QN), initial steepest desc. (CG)
   ISIF   =      2    stress and relaxation
   IWAVPR =     10    prediction:  0-non 1-charg 2-wave 3-comb
   ISYM   =      2    0-nonsym 1-usesym 2-fastsym
   LCORR  =      T    Harris-Foulkes like correction to forces

   POTIM  = 0.0000    time-step for ionic-motion
   TEIN   =    0.0    initial temperature
   TEBEG  =    0.0;   TEEND  =   0.0 temperature during run
   SMASS  =  -3.00    Nose mass-parameter (am)
   estimated Nose-frequenzy (Omega)   =  0.10E-29 period in steps =  0.00 mass=  -0.522E-26a.u.
   SCALEE = 1.0000    scale energy and forces
   NPACO  =    256;   APACO  = 16.0  distance and # of slots for P.C.
   PSTRESS=    0.0 pullay stress

  Mass of Ions in am
   POMASS =  91.22 16.00  1.00 12.01
  Ionic Valenz
   ZVAL   =  12.00  6.00  1.00  4.00
  Atomic Wigner-Seitz radii
   RWIGS  =  -1.00 -1.00 -1.00 -1.00
  virtual crystal weights 
   VCA    =   1.00  1.00  1.00  1.00
   NELECT =    1196.0000    total number of electrons
   NUPDOWN=      -1.0000    fix difference up-down

 DOS related values:
   EMIN   =  10.00;   EMAX   =-10.00  energy-range for DOS
   EFERMI =   0.00
   ISMEAR =     0;   SIGMA  =   0.05  broadening in eV -4-tet -1-fermi 0-gaus

 Electronic relaxation 2 (details)
   IALGO  =     38    algorithm
   LDIAG  =      T    sub-space diagonalisation (order eigenvalues)
   LSUBROT=      F    optimize rotation matrix (better conditioning)
   TURBO    =      0    0=normal 1=particle mesh
   IRESTART =      0    0=no restart 2=restart with 2 vectors
   NREBOOT  =      0    no. of reboots
   NMIN     =      0    reboot dimension
   EREF     =   0.00    reference energy to select bands
   IMIX   =      4    mixing-type and parameters
     AMIX     =   0.40;   BMIX     =  1.00
     AMIX_MAG =   1.60;   BMIX_MAG =  1.00
     AMIN     =   0.10
     WC   =   100.;   INIMIX=   1;  MIXPRE=   1;  MAXMIX= -45

 Intra band minimization:
   WEIMIN = 0.0000     energy-eigenvalue tresh-hold
   EBREAK =  0.39E-09  absolut break condition
   DEPER  =   0.30     relativ break condition  

   TIME   =   0.40     timestep for ELM

  volume/ion in A,a.u.               =      27.85       187.94
  Fermi-wavevector in a.u.,A,eV,Ry     =   1.060455  2.003969 15.300624  1.124564
  Thomas-Fermi vector in A             =   2.195836
 
 Write flags
   LWAVE        =      T    write WAVECAR
   LDOWNSAMPLE  =      F    k-point downsampling of WAVECAR
   LCHARG       =      T    write CHGCAR
   LVTOT        =      F    write LOCPOT, total local potential
   LVHAR        =      F    write LOCPOT, Hartree potential only
   LELF         =      F    write electronic localiz. function (ELF)
   LORBIT       =      0    0 simple, 1 ext, 2 COOP (PROOUT), +10 PAW based schemes


 Dipole corrections
   LMONO  =      F    monopole corrections only (constant potential shift)
   LDIPOL =      F    correct potential (dipole corrections)
   IDIPOL =      3    1-x, 2-y, 3-z, 4-all directions 
   EPSILON=  1.0000000 bulk dielectric constant

 LDA+U is selected, type is set to LDAUTYPE =  2
   angular momentum for each species LDAUL =     2   -1   -1   -1
   U (eV)           for each species LDAUU =   4.0  0.0  0.0  0.0
   J (eV)           for each species LDAUJ =   0.0  0.0  0.0  0.0
 Exchange correlation treatment:
   GGA     =    --    GGA type
   LEXCH   =     8    internal setting for exchange type
   VOSKOWN=      0    Vosko Wilk Nusair interpolation
   LHFCALC =     F    Hartree Fock is set to
   LHFONE  =     F    Hartree Fock one center treatment
   AEXX    =    0.0000 exact exchange contribution

 Linear response parameters
   LEPSILON=     F    determine dielectric tensor
   LRPA    =     F    only Hartree local field effects (RPA)
   LNABLA  =     F    use nabla operator in PAW spheres
   LVEL    =     F    velocity operator in full k-point grid
   LINTERFAST=   F  fast interpolation
   KINTER  =     0    interpolate to denser k-point grid
   CSHIFT  =0.1000    complex shift for real part using Kramers Kronig
   OMEGAMAX=  -1.0    maximum frequency
   DEG_THRESHOLD= 0.2000000E-02 threshold for treating states as degnerate
   RTIME   =   -0.100 relaxation time in fs
  (WPLASMAI=    0.000 imaginary part of plasma frequency in eV, 0.658/RTIME)
   DFIELD  = 0.0000000 0.0000000 0.0000000 field for delta impulse in time
 
 Orbital magnetization related:
   ORBITALMAG=     F  switch on orbital magnetization
   LCHIMAG   =     F  perturbation theory with respect to B field
   DQ        =  0.001000  dq finite difference perturbation B field
   LLRAUG    =     F  two centre corrections for induced B field



--------------------------------------------------------------------------------------------------------


 Static calculation
 charge density and potential will be updated during run
 spin polarized calculation
 Variant of blocked Davidson
 Davidson routine will perform the subspace rotation
 perform sub-space diagonalisation
    after iterative eigenvector-optimisation
 modified Broyden-mixing scheme, WC =      100.0
 initial mixing is a Kerker type mixing with AMIX =  0.4000 and BMIX =      1.0000
 Hartree-type preconditioning will be used
 using additional bands           42
 real space projection scheme for non local part
 use partial core corrections
 calculate Harris-corrections to forces 
   (improved forces if not selfconsistent)
 use gradient corrections 
 use of overlap-Matrix (Vanderbilt PP)
 Gauss-broadening in eV      SIGMA  =   0.05


--------------------------------------------------------------------------------------------------------


  energy-cutoff  :      500.00
  volume of cell :     4400.27
      direct lattice vectors                 reciprocal lattice vectors
    15.110600471  0.000000000  0.000000000     0.066178707  0.005884289  0.000000000
    -1.080094632 12.147476386  0.000000000     0.000000000  0.082321625  0.000000000
     0.000000000  0.000000000 23.972400665     0.000000000  0.000000000  0.041714637

  length of vectors
    15.110600471 12.195400238 23.972400665     0.066439793  0.082321625  0.041714637


 
 old parameters found on file WAVECAR:
  energy-cutoff  :      500.00
  volume of cell :     4400.27
      direct lattice vectors                 reciprocal lattice vectors
    15.110600471  0.000000000  0.000000000     0.066178707  0.005884289  0.000000000
    -1.080094632 12.147476386  0.000000000     0.000000000  0.082321625  0.000000000
     0.000000000  0.000000000 23.972400665     0.000000000  0.000000000  0.041714637

  length of vectors

 
 k-points in units of 2pi/SCALE and weight: Monkhorst Pack                          
   0.01654468  0.02205148  0.00000000       0.500
  -0.01654468  0.01910933  0.00000000       0.500
 
 k-points in reciprocal lattice and weights: Monkhorst Pack                          
   0.25000000  0.25000000  0.00000000       0.500
  -0.25000000  0.25000000  0.00000000       0.500
 
 position of ions in fractional coordinates (direct lattice) 
   0.08848000  0.32082999  0.03824000
   0.33847998  0.82083000  0.03824000
   0.58847999  0.32082999  0.03824000
   0.83848001  0.82083000  0.03824000
   0.07020001  0.83354995  0.04873000
   0.32019998  0.33355000  0.04873000
   0.57020004  0.83354995  0.04873000
   0.82020001  0.33355000  0.04873000
   0.23783000  0.06778000  0.05703000
   0.48783004  0.56778001  0.05703000
   0.73783001  0.06778000  0.05703000
   0.98782997  0.56778001  0.05703000
   0.21954999  0.58051001  0.06752000
   0.46955000  0.08051000  0.06752000
   0.71954999  0.58051001  0.06752000
   0.96955000  0.08051000  0.06752000
   0.10542550  0.98221692  0.17086051
   0.35609853  0.48342280  0.17105363
   0.60767199  0.98428458  0.17141634
   0.85579808  0.48337804  0.17285483
   0.08913773  0.49450785  0.18242304
   0.33864899  0.99470332  0.18202325
   0.58874469  0.49230902  0.18219294
   0.83825553  0.99506666  0.18282786
   0.00427666  0.23012736  0.19136327
   0.25266953  0.72964191  0.19124482
   0.50378779  0.22822949  0.19077764
   0.75772513  0.72928864  0.19127144
   0.23910311  0.24147323  0.20039038
   0.48751626  0.74280291  0.19951641
   0.74053967  0.24479591  0.20370819
   0.98801776  0.73981963  0.20279897
   0.12266850  0.64174975  0.31418440
   0.37003736  0.13887271  0.31242232
   0.62135232  0.64670278  0.30430573
   0.87350762  0.13701472  0.31398446
   0.10919525  0.16026717  0.31204017
   0.35741382  0.65923068  0.31250985
   0.60400694  0.15779619  0.31492920
   0.85771085  0.66408123  0.32176214
   0.02632916  0.88862676  0.32451569
   0.27420928  0.38848995  0.32513385
   0.52322056  0.88672137  0.32446708
   0.78891741  0.38287312  0.33130140
   0.01405770  0.40657372  0.33593771
   0.25797880  0.90622632  0.33603141
   0.50390111  0.39733325  0.33408608
   0.75820248  0.90640490  0.33711663
   0.69909661  0.54224387  0.41538292
   0.02440000  0.17254999  0.00000000
   0.27439999  0.67255002  0.00000000
   0.52439999  0.17254999  0.00000000
   0.77439999  0.67255002  0.00000000
   0.21455000  0.43156997  0.01581000
   0.46455001  0.93156996  0.01581000
   0.71455008  0.43156997  0.01581000
   0.96455004  0.93156996  0.01581000
   0.20673000  0.89092997  0.02490000
   0.45673000  0.39092998  0.02490000
   0.70672997  0.89092997  0.02490000
   0.95673004  0.39092998  0.02490000
   0.19748000  0.22610000  0.04418000
   0.44748002  0.72610003  0.04418000
   0.69748003  0.22610000  0.04418000
   0.94747999  0.72610003  0.04418000
   0.11054000  0.67523994  0.06158000
   0.36054002  0.17523999  0.06158000
   0.61053998  0.67523994  0.06158000
   0.86053999  0.17523999  0.06158000
   0.10129000  0.01041000  0.08086000
   0.35129000  0.51041000  0.08086000
   0.60128997  0.01041000  0.08086000
   0.85128994  0.51041000  0.08086000
   0.09348000  0.46976000  0.08995000
   0.34348000  0.96975995  0.08995000
   0.59348001  0.46976000  0.08995000
   0.84347996  0.96975995  0.08995000
   0.03362000  0.22878000  0.10576000
   0.28361999  0.72877998  0.10576000
   0.53361997  0.22878000  0.10576000
   0.78362002  0.72877998  0.10576000
   0.04464487  0.83263037  0.13368322
   0.29610454  0.33387557  0.13338765
   0.54608081  0.83397066  0.13335459
   0.79548171  0.33264880  0.13398454
   0.23132952  0.09311172  0.14602318
   0.48149749  0.59345650  0.14666757
   0.73169304  0.09370900  0.14693403
   0.98151634  0.59341835  0.14690617
   0.22530420  0.55216671  0.16044377
   0.47615142  0.05073205  0.16064179
   0.72500333  0.55182976  0.16078619
   0.97460633  0.05243190  0.16079017
   0.21453880  0.88983739  0.18073655
   0.46428801  0.38913714  0.18026235
   0.71481425  0.88857472  0.18093014
   0.96520625  0.39030067  0.18158055
   0.12973204  0.33468986  0.19205443
   0.37862500  0.83485349  0.19339831
   0.62826258  0.33498946  0.19441796
   0.87923574  0.83633472  0.19426405
   0.11707712  0.67123117  0.21464772
   0.36663287  0.16878016  0.21265031
   0.61817225  0.67038450  0.21378179
   0.86719040  0.16976882  0.21670152
   0.11529953  0.12958573  0.22354575
   0.36339695  0.63055387  0.22389352
   0.61507617  0.13102211  0.22529121
   0.86414706  0.63172903  0.22542473
   0.04695432  0.89299334  0.23993916
   0.29678632  0.39543581  0.24051241
   0.54724694  0.89290292  0.23991793
   0.79806386  0.39311789  0.24054637
   0.07057089  0.49219015  0.26877419
   0.31323317  0.99188229  0.26802864
   0.56019815  0.49289300  0.26868720
   0.80912158  0.99311020  0.26869469
   0.25058218  0.75012934  0.28247877
   0.49619351  0.24957328  0.28023909
   0.74924359  0.74639769  0.28371769
   0.00636112  0.25166648  0.28063222
   0.24455479  0.21357318  0.29048620
   0.49338338  0.71135943  0.28982463
   0.74207680  0.21806445  0.29723191
   0.99407304  0.71137224  0.29408398
   0.23850239  0.55444683  0.32891844
   0.48424483  0.05091673  0.32525267
   0.73001443  0.54557228  0.32577962
   0.98882021  0.05552742  0.32799662
   0.14623620  0.00328679  0.33087190
   0.39668244  0.50442417  0.33502302
   0.64197149  0.99994999  0.33507532
   0.89937329  0.50218961  0.32881452
   0.13769795  0.31998869  0.35199345
   0.38532397  0.81878803  0.35108482
   0.60481645  0.30216953  0.36066813
   0.88971034  0.83626052  0.34432074
   0.13195347  0.79952169  0.35645102
   0.37834713  0.29769082  0.35496273
   0.62643665  0.79298563  0.35406305
   0.89427682  0.29305267  0.35499081
   0.06757907  0.54324316  0.37515719
   0.31550500  0.04202917  0.37436447
   0.57526892  0.54058588  0.37782495
   0.81530193  0.04156153  0.37507316
   0.79994709  0.67191455  0.40476135
   0.75749067  0.40842259  0.41469778
   0.68298732  0.56383391  0.51718590
   0.68877159  0.86295048  0.54106473
   0.77179097  0.67595969  0.45146313
   0.60396256  0.89422022  0.49372883
   0.70988170  0.86501063  0.46851119
   0.57928708  0.69931685  0.53117301
   0.58879298  0.70487715  0.45819780
   0.75473936  0.67842516  0.53160214
   0.65879503  0.84209991  0.50017234
   0.70590970  0.64718372  0.50008607
   0.62716884  0.71980896  0.49721964
 
 position of ions in cartesian coordinates  (Angst):
   0.99045921  3.89727473  0.91670460
   4.22806168  9.97101307  0.91670460
   8.54575920  3.89727473  0.91670460
  11.78336239  9.97101307  0.91670460
   0.16045142 10.12552833  1.16817511
   4.47814847  4.05179071  1.16817511
   7.71575212 10.12552833  1.16817511
  12.03344917  4.05179071  1.16817511
   3.52054525  0.82335597  1.36714601
   6.75814868  6.89709425  1.36714601
  11.07584571  0.82335597  1.36714601
  14.31344795  6.89709425  1.36714601
   2.69052649  7.05173159  1.61861647
   7.00822400  0.97799331  1.61861647
  10.24582672  7.05173159  1.61861647
  14.56352424  0.97799331  1.61861647
   0.53215546 11.93145689  4.09593667
   4.85872029  5.87236703  4.10056614
   8.11916818 11.95657366  4.10926118
  12.40952888  5.87182332  4.14374525
   0.81280934  6.00702239  4.37311823
   4.04281591 12.08313507  4.36353432
   8.36454552  5.98031224  4.36760210
  11.59177828 12.08754870  4.38282267
  -0.18393648  2.79546668  4.58743708
   3.02990598  8.86330784  4.58459744
   7.36602660  2.77241235  4.57339796
  10.66198103  8.85901651  4.58523559
   3.35217765  2.93329034  4.80383843
   6.56436594  9.02318079  4.78288740
  10.92559627  2.97365258  4.88337446
  14.13046636  8.98694146  4.86157810
   1.16044420  7.79563993  7.53175435
   5.44149097  1.68695294  7.48951304
   8.69050651  7.85580673  7.29493889
  13.05123583  1.66438305  7.52696117
   1.47690208  1.94684169  7.48035189
   4.68870587  8.00798915  7.49161145
   8.95647273  1.91682554  7.54960889
  12.24325537  8.06691111  7.71341091
  -0.56195164 10.79457262  7.77942014
   3.72386101  4.71917249  7.79423893
   6.94843391 10.77142688  7.77825483
  11.50747661  4.65094212  7.94208994
  -0.22671786  4.93884471  8.05323332
   2.91940439 11.00836280  8.05547956
   7.18509087  4.82659632  8.00884534
  10.47789171 11.01053209  8.08149494
   9.97809493  6.58689455  9.95772570
   0.18232835  2.09604693  0.00000000
   3.41993094  8.16978550  0.00000000
   7.73762846  2.09604693  0.00000000
  10.97523117  8.16978550  0.00000000
   2.77584291  5.24248600  0.37900365
   6.01344586 11.31622410  0.37900365
  10.33114434  5.24248600  0.37900365
  13.56874656 11.31622410  0.37900365
   2.16152573 10.82255077  0.59691280
   6.47922326  4.74881268  0.59691280
   9.71682548 10.82255077  0.59691280
  14.03452396  4.74881268  0.59691280
   2.73983193  2.74654436  1.05910064
   5.97743511  8.82028293  1.05910064
  10.29513263  2.74654436  1.05910064
  13.53273487  8.82028293  1.05910064
   0.94100273  8.20246124  1.47622036
   5.25870037  2.12872362  1.47622036
   8.49630260  8.20246124  1.47622036
  12.81400013  2.12872362  1.47622036
   1.51930892  0.12645522  1.93840825
   4.75691175  6.20019341  1.93840825
   9.07460880  0.12645522  1.93840825
  12.31221104  6.20019341  1.93840825
   0.90515363  5.70639848  2.15631746
   4.14275646 11.78013610  2.15631746
   8.46045399  5.70639848  2.15631746
  11.69805622 11.78013610  2.15631746
   0.26091433  2.77909971  2.53532100
   3.49851704  8.85283756  2.53532100
   7.81621408  2.77909971  2.53532100
  11.05381775  8.85283756  2.53532100
  -0.22470882 10.11435781  3.20470761
   4.11370025  4.05574564  3.19762221
   7.35084173 10.13063893  3.19682963
  11.66091416  4.04084343  3.21193109
   3.39495846  1.13107243  3.50052622
   6.63472705  7.20899880  3.51597382
  10.95510655  1.13832790  3.52236145
  14.19035333  7.20853537  3.52169346
   2.80808947  6.70743206  3.84622229
   7.14013841  0.61626642  3.85096940
  10.35920724  6.70333894  3.85443095
  14.67025545  0.63691523  3.85452630
   2.28070154 10.80927870  4.33268900
   6.59536573  4.72703419  4.32132121
   9.84152776 10.79394039  4.33732981
  14.16328434  4.74116814  4.35292168
   1.59883235  4.06563718  4.60400583
   4.81953029 10.14136304  4.63622179
   9.13160447  4.06927651  4.66066530
  12.38245928 10.15935632  4.65697555
   1.04411238  8.15376483  5.14562113
   5.35774421  2.05025301  5.09773854
   8.61687518  8.14347994  5.12486284
  12.92040123  2.06226273  5.19485576
   1.60228035  1.57413957  5.35892818
   4.81008835  7.65963827  5.36726523
   9.15265399  1.59158793  5.40077120
  12.37545385  7.67391349  5.40397203
  -0.25500939 10.84761551  5.75191763
   4.05751136  4.80354715  5.76565983
   7.30481028 10.84651710  5.75140876
  11.63461961  4.77539029  5.76647389
   0.53475664  5.97886823  6.44316253
   3.66181456 12.04886666  6.42528995
   7.93255941  5.98740611  6.44107716
  11.15365993 12.06378270  6.44125681
   2.97623661  9.11217846  6.77169416
   7.22821910  3.03168550  6.71800365
  10.51534036  9.06684833  6.80139425
  -0.17570321  3.05711260  6.72742797
   3.46469050  2.59437517  6.96365146
   6.68698360  8.64122194  6.94779222
  10.97769582  2.64893271  7.12536244
  14.25269125  8.64137753  7.04989888
   3.00505935  6.73512976  7.88496468
   7.26223522  0.61850979  7.79708729
  10.44168673  6.62732643  7.80971947
  14.88169231  0.67451805  7.86286646
   2.20616681  0.03992615  7.93179385
   5.44928399  6.12748067  8.03130598
   8.62053403 12.14686892  8.03255991
  13.04765817  6.10033640  7.88247346
   1.73508063  3.88705509  8.43812807
   4.93810798  9.94620829  8.41634604
   8.81276797  3.67059725  8.64608101
  12.54081691 10.15845494  8.25419476
   1.13033711  9.71217087  8.54498675
   5.39551805  3.61619226  8.50930889
   8.60933449  9.63277416  8.48774121
  13.19653509  3.55985035  8.50998181
   0.43440628  6.59903340  8.99341851
   4.72207459  0.51054834  8.97441502
   8.10877488  6.56675417  9.05737106
  12.27481133  0.50486767  8.99140408
  11.36194963  8.16206615  9.70310114
  11.00500384  4.96130379  9.94130123
   9.71135453  6.84915912 12.39818754
   9.47568414 10.48267063 12.97062053
  10.93212454  8.21120433 10.82265514
   8.16039445 10.86251902 11.83586543
   9.79244543 10.50769622 11.23133790
   7.99804724  8.49493496 12.73349230
   8.13568142  8.56247848 10.98410134
  10.67180149  8.24115362 12.74377945
   9.04524094 10.22938875 11.99033172
   9.96769977  7.86164891 11.98826366
   8.69943595  8.74386232 11.91954850
 


--------------------------------------------------------------------------------------------------------


 k-point  1 :   0.2500 0.2500 0.0000  plane waves:  111683
 k-point  2 :  -0.2500 0.2500 0.0000  plane waves:  111725

 maximum and minimum number of plane-waves per node :     18644    18587

 maximum number of plane-waves:    111725
 maximum index in each direction: 
   IXMAX=   27   IYMAX=   21   IZMAX=   43
   IXMIN=  -27   IYMIN=  -22   IZMIN=  -43


 real space projection operators:
  total allocation   :      22026.38 KBytes
  max/ min on nodes  :       3676.98       3666.18


 parallel 3D FFT for wavefunctions:
    minimum data exchange during FFTs selected (reduces bandwidth)
 parallel 3D FFT for charge:
    minimum data exchange during FFTs selected (reduces bandwidth)


 total amount of memory used by VASP MPI-rank0   174547. kBytes
=======================================================================

   base      :      30000. kBytes
   nonlr-proj:      11331. kBytes
   fftplans  :       9317. kBytes
   grid      :      26149. kBytes
   one-center:        839. kBytes
   wavefun   :      96911. kBytes
 
     INWAV:  cpu time    8.6845: real time    8.8199
 Broyden mixing: mesh for mixing (old mesh)
   NGX = 55   NGY = 45   NGZ = 87
  (NGX  =168   NGY  =140   NGZ  =280)
  gives a total of 215325 points

 initial charge density was supplied:
 number of electron    1196.0000023 magnetization      -0.0000000
 keeping initial charge density in first step


--------------------------------------------------------------------------------------------------------


 Maximum index for non-local projection operator          433
 Maximum index for augmentation-charges          481 (set IRDMAX)


--------------------------------------------------------------------------------------------------------


 First call to EWALD:  gamma=   0.108
 Maximum number of real-space cells 3x 4x 2
 Maximum number of reciprocal cells 3x 2x 4

    FEWALD:  cpu time    0.0049: real time    0.0049


--------------------------------------- Iteration      1(   1)  ---------------------------------------


    POTLOK:  cpu time    0.2229: real time    0.2244
    SETDIJ:  cpu time    0.0218: real time    0.0219
     EDDAV:  cpu time   27.9880: real time   28.1226
       DOS:  cpu time    0.0007: real time    0.0007
    CHARGE:  cpu time    1.1789: real time    1.1853
    MIXING:  cpu time    0.0068: real time    0.0069
    --------------------------------------------
      LOOP:  cpu time   29.4191: real time   29.5618

 eigenvalue-minimisations  :  6304
 total energy-change (2. order) :-0.1328303E+04  (-0.1291997E+00)
 number of electron    1196.0000023 magnetization      -0.0000000
 augmentation part       73.5998487 magnetization       0.0000000

 Broyden mixing:
  rms(total) = 0.94779E-01    rms(broyden)= 0.94702E-01
  rms(prec ) = 0.95954E-01
  weight for this iteration     100.00

 Free energy of the ion-electron system (eV)
  ---------------------------------------------------
  alpha Z        PSCENC =      2113.54737298
  Ewald energy   TEWEN  =    393810.34056147
  -Hartree energ DENC   =   -490299.86385615
  -exchange      EXHF   =         0.00000000
  -V(xc)+E(xc)   XCENC  =      5279.61042892
  PAW double counting   =    129252.90567497  -128572.71876391
  entropy T*S    EENTRO =        -0.00000000
  eigenvalues    EBANDS =    -18751.02696245
  atomic energy  EATOM  =    105838.90241102
  Solvation  Ediel_sol  =         0.00000000
  ---------------------------------------------------
  free energy    TOTEN  =     -1328.30313317 eV

  energy without entropy =    -1328.30313317  energy(sigma->0) =    -1328.30313317


--------------------------------------------------------------------------------------------------------




--------------------------------------- Iteration      1(   2)  ---------------------------------------


    POTLOK:  cpu time    0.2118: real time    0.2156
    SETDIJ:  cpu time    0.0214: real time    0.0214
     EDDAV:  cpu time   27.4718: real time   27.6230
       DOS:  cpu time    0.0006: real time    0.0006
    CHARGE:  cpu time    1.1863: real time    1.1922
    MIXING:  cpu time    0.0061: real time    0.0062
    --------------------------------------------
      LOOP:  cpu time   28.8980: real time   29.0590

 eigenvalue-minimisations  :  6144
 total energy-change (2. order) :-0.1733187E+01  (-0.1151998E+00)
 number of electron    1196.0000023 magnetization      -0.0000000
 augmentation part       73.5237917 magnetization      -0.0000000

 Broyden mixing:
  rms(total) = 0.40190E-01    rms(broyden)= 0.40074E-01
  rms(prec ) = 0.42227E-01
  weight for this iteration     100.00

 eigenvalues of (default mixing * dielectric matrix)
  average eigenvalue GAMMA=   0.7384
  0.7384

 Free energy of the ion-electron system (eV)
  ---------------------------------------------------
  alpha Z        PSCENC =      2113.54737298
  Ewald energy   TEWEN  =    393810.34056147
  -Hartree energ DENC   =   -490301.67463999
  -exchange      EXHF   =         0.00000000
  -V(xc)+E(xc)   XCENC  =      5279.70471236
  PAW double counting   =    129109.02865090  -128427.79728942
  entropy T*S    EENTRO =        -0.00000000
  eigenvalues    EBANDS =    -18752.08809916
  atomic energy  EATOM  =    105838.90241102
  Solvation  Ediel_sol  =         0.00000000
  ---------------------------------------------------
  free energy    TOTEN  =     -1330.03631985 eV

  energy without entropy =    -1330.03631985  energy(sigma->0) =    -1330.03631985


--------------------------------------------------------------------------------------------------------




--------------------------------------- Iteration      1(   3)  ---------------------------------------


    POTLOK:  cpu time    0.2102: real time    0.2135
    SETDIJ:  cpu time    0.0213: real time    0.0213
     EDDAV:  cpu time   29.3887: real time   29.5607
       DOS:  cpu time    0.0007: real time    0.0007
    CHARGE:  cpu time    1.1836: real time    1.1902
    MIXING:  cpu time    0.0062: real time    0.0062
    --------------------------------------------
      LOOP:  cpu time   30.8106: real time   30.9926

 eigenvalue-minimisations  :  6720
 total energy-change (2. order) :-0.9693407E-02  (-0.3991758E-02)
 number of electron    1196.0000024 magnetization      -0.0000000
 augmentation part       73.5549268 magnetization      -0.0000000

 Broyden mixing:
  rms(total) = 0.27499E-01    rms(broyden)= 0.27481E-01
  rms(prec ) = 0.27894E-01
  weight for this iteration     100.00

 eigenvalues of (default mixing * dielectric matrix)
  average eigenvalue GAMMA=   0.6942
  0.6942  0.6942

 Free energy of the ion-electron system (eV)
  ---------------------------------------------------
  alpha Z        PSCENC =      2113.54737298
  Ewald energy   TEWEN  =    393810.34056147
  -Hartree energ DENC   =   -490299.21347168
  -exchange      EXHF   =         0.00000000
  -V(xc)+E(xc)   XCENC  =      5279.51316992
  PAW double counting   =    129136.71180439  -128454.74393799
  entropy T*S    EENTRO =        -0.00000000
  eigenvalues    EBANDS =    -18755.10392336
  atomic energy  EATOM  =    105838.90241102
  Solvation  Ediel_sol  =         0.00000000
  ---------------------------------------------------
  free energy    TOTEN  =     -1330.04601325 eV

  energy without entropy =    -1330.04601325  energy(sigma->0) =    -1330.04601325


--------------------------------------------------------------------------------------------------------




--------------------------------------- Iteration      1(   4)  ---------------------------------------


    POTLOK:  cpu time    0.2113: real time    0.2136
    SETDIJ:  cpu time    0.0213: real time    0.0214
     EDDAV:  cpu time   25.3997: real time   25.5444
       DOS:  cpu time    0.0006: real time    0.0006
    CHARGE:  cpu time    1.1856: real time    1.1916
    MIXING:  cpu time    0.0064: real time    0.0064
    --------------------------------------------
      LOOP:  cpu time   26.8250: real time   26.9781

 eigenvalue-minimisations  :  5568
 total energy-change (2. order) :-0.4427206E-04  (-0.2019053E-03)
 number of electron    1196.0000023 magnetization      -0.0000000
 augmentation part       73.5509636 magnetization      -0.0000000

 Broyden mixing:
  rms(total) = 0.22282E-01    rms(broyden)= 0.22281E-01
  rms(prec ) = 0.22570E-01
  weight for this iteration     100.00

 eigenvalues of (default mixing * dielectric matrix)
  average eigenvalue GAMMA=   0.6861
  0.7722  0.7722  0.5138

 Free energy of the ion-electron system (eV)
  ---------------------------------------------------
  alpha Z        PSCENC =      2113.54737298
  Ewald energy   TEWEN  =    393810.34056147
  -Hartree energ DENC   =   -490299.90231883
  -exchange      EXHF   =         0.00000000
  -V(xc)+E(xc)   XCENC  =      5279.57893804
  PAW double counting   =    129165.90631342  -128483.88734333
  entropy T*S    EENTRO =        -0.00000000
  eigenvalues    EBANDS =    -18754.53199229
  atomic energy  EATOM  =    105838.90241102
  Solvation  Ediel_sol  =         0.00000000
  ---------------------------------------------------
  free energy    TOTEN  =     -1330.04605753 eV

  energy without entropy =    -1330.04605753  energy(sigma->0) =    -1330.04605753


--------------------------------------------------------------------------------------------------------




--------------------------------------- Iteration      1(   5)  ---------------------------------------


    POTLOK:  cpu time    0.2120: real time    0.2145
    SETDIJ:  cpu time    0.0216: real time    0.0217
     EDDAV:  cpu time   29.6145: real time   29.7772
       DOS:  cpu time    0.0006: real time    0.0006
    CHARGE:  cpu time    1.1844: real time    1.1895
    MIXING:  cpu time    0.0068: real time    0.0068
    --------------------------------------------
      LOOP:  cpu time   31.0400: real time   31.2103

 eigenvalue-minimisations  :  6784
 total energy-change (2. order) :-0.9463765E-05  (-0.1947725E-04)
 number of electron    1196.0000023 magnetization      -0.0000000
 augmentation part       73.5570108 magnetization       0.0000000

 Broyden mixing:
  rms(total) = 0.18764E-01    rms(broyden)= 0.18764E-01
  rms(prec ) = 0.19009E-01
  weight for this iteration     100.00

 eigenvalues of (default mixing * dielectric matrix)
  average eigenvalue GAMMA=   0.7193
  0.8963  0.8963  0.5424  0.5424

 Free energy of the ion-electron system (eV)
  ---------------------------------------------------
  alpha Z        PSCENC =      2113.54737298
  Ewald energy   TEWEN  =    393810.34056147
  -Hartree energ DENC   =   -490299.94083407
  -exchange      EXHF   =         0.00000000
  -V(xc)+E(xc)   XCENC  =      5279.58283407
  PAW double counting   =    129183.64178218  -128501.58725329
  entropy T*S    EENTRO =        -0.00000000
  eigenvalues    EBANDS =    -18754.53294135
  atomic energy  EATOM  =    105838.90241102
  Solvation  Ediel_sol  =         0.00000000
  ---------------------------------------------------
  free energy    TOTEN  =     -1330.04606699 eV

  energy without entropy =    -1330.04606699  energy(sigma->0) =    -1330.04606699


--------------------------------------------------------------------------------------------------------




--------------------------------------- Iteration      1(   6)  ---------------------------------------


    POTLOK:  cpu time    0.2122: real time    0.2137
    SETDIJ:  cpu time    0.0213: real time    0.0213
     EDDAV:  cpu time   28.4653: real time   28.5945
       DOS:  cpu time    0.0007: real time    0.0007
    CHARGE:  cpu time    1.1851: real time    1.1899
    MIXING:  cpu time    0.0071: real time    0.0071
    --------------------------------------------
      LOOP:  cpu time   29.8916: real time   30.0273

 eigenvalue-minimisations  :  6432
 total energy-change (2. order) :-0.1230104E-04  (-0.2081779E-05)
 number of electron    1196.0000023 magnetization       0.0000000
 augmentation part       73.5582661 magnetization      -0.0000000

 Broyden mixing:
  rms(total) = 0.16319E-01    rms(broyden)= 0.16319E-01
  rms(prec ) = 0.16543E-01
  weight for this iteration     100.00

 eigenvalues of (default mixing * dielectric matrix)
  average eigenvalue GAMMA=   0.8013
  1.1355  1.1355  0.5249  0.6051  0.6051

 Free energy of the ion-electron system (eV)
  ---------------------------------------------------
  alpha Z        PSCENC =      2113.54737298
  Ewald energy   TEWEN  =    393810.34056147
  -Hartree energ DENC   =   -490300.05084270
  -exchange      EXHF   =         0.00000000
  -V(xc)+E(xc)   XCENC  =      5279.59037051
  PAW double counting   =    129197.38618814  -128515.32102609
  entropy T*S    EENTRO =        -0.00000000
  eigenvalues    EBANDS =    -18754.44111462
  atomic energy  EATOM  =    105838.90241102
  Solvation  Ediel_sol  =         0.00000000
  ---------------------------------------------------
  free energy    TOTEN  =     -1330.04607929 eV

  energy without entropy =    -1330.04607929  energy(sigma->0) =    -1330.04607929


--------------------------------------------------------------------------------------------------------




--------------------------------------- Iteration      1(   7)  ---------------------------------------


    POTLOK:  cpu time    0.2119: real time    0.2128
    SETDIJ:  cpu time    0.0213: real time    0.0214
     EDDAV:  cpu time   29.1133: real time   29.2467
       DOS:  cpu time    0.0006: real time    0.0006
    CHARGE:  cpu time    1.1818: real time    1.1884
    MIXING:  cpu time    0.0075: real time    0.0075
    --------------------------------------------
      LOOP:  cpu time   30.5364: real time   30.6773

 eigenvalue-minimisations  :  6592
 total energy-change (2. order) :-0.9692405E-05  (-0.2403838E-05)
 number of electron    1196.0000023 magnetization       0.0000000
 augmentation part       73.5595030 magnetization      -0.0000000

 Broyden mixing:
  rms(total) = 0.12841E-01    rms(broyden)= 0.12841E-01
  rms(prec ) = 0.13016E-01
  weight for this iteration     100.00

 eigenvalues of (default mixing * dielectric matrix)
  average eigenvalue GAMMA=   0.8500
  1.3308  1.3308  0.6761  0.6761  0.5431  0.5431

 Free energy of the ion-electron system (eV)
  ---------------------------------------------------
  alpha Z        PSCENC =      2113.54737298
  Ewald energy   TEWEN  =    393810.34056147
  -Hartree energ DENC   =   -490300.08852652
  -exchange      EXHF   =         0.00000000
  -V(xc)+E(xc)   XCENC  =      5279.59613159
  PAW double counting   =    129215.95076827  -128533.87237608
  entropy T*S    EENTRO =        -0.00000000
  eigenvalues    EBANDS =    -18754.42243170
  atomic energy  EATOM  =    105838.90241102
  Solvation  Ediel_sol  =         0.00000000
  ---------------------------------------------------
  free energy    TOTEN  =     -1330.04608898 eV

  energy without entropy =    -1330.04608898  energy(sigma->0) =    -1330.04608898


--------------------------------------------------------------------------------------------------------




--------------------------------------- Iteration      1(   8)  ---------------------------------------


    POTLOK:  cpu time    0.2110: real time    0.2130
    SETDIJ:  cpu time    0.0211: real time    0.0212
     EDDAV:  cpu time   27.1851: real time   27.3389
       DOS:  cpu time    0.0010: real time    0.0006
    CHARGE:  cpu time    1.1851: real time    1.1899
    MIXING:  cpu time    0.0079: real time    0.0079
    --------------------------------------------
      LOOP:  cpu time   28.6112: real time   28.7715

 eigenvalue-minimisations  :  6048
 total energy-change (2. order) :-0.6540853E-05  (-0.1577425E-05)
 number of electron    1196.0000023 magnetization       0.0000000
 augmentation part       73.5611432 magnetization      -0.0000000

 Broyden mixing:
  rms(total) = 0.10625E-01    rms(broyden)= 0.10625E-01
  rms(prec ) = 0.10762E-01
  weight for this iteration     100.00

 eigenvalues of (default mixing * dielectric matrix)
  average eigenvalue GAMMA=   0.9125
  1.5803  1.5803  0.7652  0.7652  0.5309  0.5827  0.5827

 Free energy of the ion-electron system (eV)
  ---------------------------------------------------
  alpha Z        PSCENC =      2113.54737298
  Ewald energy   TEWEN  =    393810.34056147
  -Hartree energ DENC   =   -490300.11338700
  -exchange      EXHF   =         0.00000000
  -V(xc)+E(xc)   XCENC  =      5279.59918699
  PAW double counting   =    129227.93838096  -128545.85028057
  entropy T*S    EENTRO =        -0.00000000
  eigenvalues    EBANDS =    -18754.41034138
  atomic energy  EATOM  =    105838.90241102
  Solvation  Ediel_sol  =         0.00000000
  ---------------------------------------------------
  free energy    TOTEN  =     -1330.04609552 eV

  energy without entropy =    -1330.04609552  energy(sigma->0) =    -1330.04609552


--------------------------------------------------------------------------------------------------------




--------------------------------------- Iteration      1(   9)  ---------------------------------------


    POTLOK:  cpu time    0.2110: real time    0.2142
    SETDIJ:  cpu time    0.0212: real time    0.0212
     EDDAV:  cpu time   20.2818: real time   20.3765
       DOS:  cpu time    0.0006: real time    0.0006
    CHARGE:  cpu time    1.1812: real time    1.1859
    MIXING:  cpu time    0.0081: real time    0.0081
    --------------------------------------------
      LOOP:  cpu time   21.7040: real time   21.8065

 eigenvalue-minimisations  :  4032
 total energy-change (2. order) :-0.5213282E-05  (-0.4271095E-06)
 number of electron    1196.0000023 magnetization      -0.0000000
 augmentation part       73.5620184 magnetization      -0.0000000

 Broyden mixing:
  rms(total) = 0.90480E-02    rms(broyden)= 0.90480E-02
  rms(prec ) = 0.91676E-02
  weight for this iteration     100.00

 eigenvalues of (default mixing * dielectric matrix)
  average eigenvalue GAMMA=   1.0816
  2.1530  2.1530  0.9268  0.9268  0.6664  0.6664  0.5802  0.5802

 Free energy of the ion-electron system (eV)
  ---------------------------------------------------
  alpha Z        PSCENC =      2113.54737298
  Ewald energy   TEWEN  =    393810.34056147
  -Hartree energ DENC   =   -490300.12423429
  -exchange      EXHF   =         0.00000000
  -V(xc)+E(xc)   XCENC  =      5279.60046930
  PAW double counting   =    129236.52433708  -128554.43444644
  entropy T*S    EENTRO =        -0.00000000
  eigenvalues    EBANDS =    -18754.40257186
  atomic energy  EATOM  =    105838.90241102
  Solvation  Ediel_sol  =         0.00000000
  ---------------------------------------------------
  free energy    TOTEN  =     -1330.04610074 eV

  energy without entropy =    -1330.04610074  energy(sigma->0) =    -1330.04610074


--------------------------------------------------------------------------------------------------------




--------------------------------------- Iteration      1(  10)  ---------------------------------------


    POTLOK:  cpu time    0.2112: real time    0.2118
    SETDIJ:  cpu time    0.0212: real time    0.0213
     EDDAV:  cpu time   28.8963: real time   29.0442
       DOS:  cpu time    0.0005: real time    0.0005
    CHARGE:  cpu time    1.1808: real time    1.1869
    MIXING:  cpu time    0.0084: real time    0.0084
    --------------------------------------------
      LOOP:  cpu time   30.3184: real time   30.4732

 eigenvalue-minimisations  :  6528
 total energy-change (2. order) :-0.7939278E-05  (-0.3346533E-05)
 number of electron    1196.0000023 magnetization      -0.0000000
 augmentation part       73.5634212 magnetization      -0.0000000

 Broyden mixing:
  rms(total) = 0.46493E-02    rms(broyden)= 0.46492E-02
  rms(prec ) = 0.47148E-02
  weight for this iteration     100.00

 eigenvalues of (default mixing * dielectric matrix)
  average eigenvalue GAMMA=   1.1247
  2.4094  2.4094  1.0719  1.0719  0.6943  0.6943  0.5884  0.5911  0.5911

 Free energy of the ion-electron system (eV)
  ---------------------------------------------------
  alpha Z        PSCENC =      2113.54737298
  Ewald energy   TEWEN  =    393810.34056147
  -Hartree energ DENC   =   -490300.15910732
  -exchange      EXHF   =         0.00000000
  -V(xc)+E(xc)   XCENC  =      5279.60478284
  PAW double counting   =    129259.90293687  -128577.80323932
  entropy T*S    EENTRO =        -0.00000000
  eigenvalues    EBANDS =    -18754.38182722
  atomic energy  EATOM  =    105838.90241102
  Solvation  Ediel_sol  =         0.00000000
  ---------------------------------------------------
  free energy    TOTEN  =     -1330.04610868 eV

  energy without entropy =    -1330.04610868  energy(sigma->0) =    -1330.04610868


--------------------------------------------------------------------------------------------------------




--------------------------------------- Iteration      1(  11)  ---------------------------------------


    POTLOK:  cpu time    0.2112: real time    0.2119
[...]
   0.319E+02 -.251E+02 -.141E+04   -.284E+02 0.262E+02 0.141E+04   -.352E+01 -.108E+01 -.447E+01   -.237E-03 0.101E-03 -.505E-03
   -.222E+01 -.675E+02 -.137E+04   0.630E+01 0.689E+02 0.137E+04   -.408E+01 -.133E+01 -.411E+01   -.758E-05 -.197E-04 -.310E-03
   -.139E+03 -.164E+02 -.122E+04   0.144E+03 0.200E+02 0.122E+04   -.520E+01 -.359E+01 0.263E-01   0.177E-04 0.378E-03 -.679E-03
   -.414E+02 0.164E+01 -.163E+04   0.423E+02 0.105E+01 0.164E+04   -.868E+00 -.269E+01 -.889E+01   0.240E-03 -.369E-04 -.540E-03
   0.330E+02 -.292E+02 -.160E+04   -.326E+02 0.331E+02 0.161E+04   -.416E+00 -.390E+01 -.838E+01   0.344E-03 0.234E-03 -.226E-03
   -.138E+02 0.806E+02 -.161E+04   0.220E+02 -.770E+02 0.162E+04   -.816E+01 -.361E+01 -.126E+02   0.588E-04 -.243E-03 -.197E-03
   -.976E+02 -.108E+03 -.146E+04   0.970E+02 0.112E+03 0.147E+04   0.613E+00 -.399E+01 -.622E+01   0.469E-04 -.756E-04 -.495E-03
   -.401E+02 0.620E+01 -.167E+04   0.416E+02 -.756E+01 0.169E+04   -.149E+01 0.137E+01 -.113E+02   -.437E-03 0.251E-03 -.305E-03
   0.433E+02 0.450E+02 -.166E+04   -.421E+02 -.475E+02 0.167E+04   -.119E+01 0.249E+01 -.117E+02   -.377E-03 0.268E-04 -.424E-03
   0.640E+02 -.677E+02 -.153E+04   -.611E+02 0.672E+02 0.154E+04   -.291E+01 0.514E+00 -.117E+02   -.202E-03 0.153E-03 -.920E-04
   -.105E+03 0.866E+02 -.161E+04   0.109E+03 -.890E+02 0.162E+04   -.337E+01 0.247E+01 -.117E+02   -.222E-03 -.365E-04 -.180E-03
   -.646E+02 -.412E+02 -.181E+04   0.644E+02 0.451E+02 0.183E+04   0.245E+00 -.392E+01 -.185E+02   -.243E-03 -.140E-03 -.107E-02
   0.206E+02 -.472E+02 -.182E+04   -.202E+02 0.512E+02 0.184E+04   -.381E+00 -.400E+01 -.183E+02   0.385E-04 -.690E-04 -.807E-03
   0.271E+03 0.109E+02 -.160E+04   -.283E+03 -.824E+01 0.161E+04   0.111E+02 -.269E+01 -.580E+01   0.111E-03 0.975E-04 0.275E-04
   -.344E+02 -.876E+02 -.178E+04   0.346E+02 0.921E+02 0.180E+04   -.178E+00 -.446E+01 -.185E+02   -.189E-04 -.401E-03 -.827E-03
   -.211E+03 -.168E+03 -.166E+04   0.222E+03 0.178E+03 0.165E+04   -.109E+02 -.102E+02 0.517E+01   0.132E-03 0.425E-04 0.115E-03
   -.119E+03 0.279E+03 -.178E+04   0.127E+03 -.294E+03 0.179E+04   -.748E+01 0.151E+02 -.127E+02   -.253E-03 0.813E-03 -.328E-03
   0.118E+02 0.564E+02 -.252E+03   -.129E+02 -.607E+02 0.254E+03   0.105E+01 0.428E+01 -.218E+01   -.530E-05 0.509E-04 0.107E-03
   -.196E+02 -.358E+02 -.232E+03   0.218E+02 0.371E+02 0.237E+03   -.215E+01 -.132E+01 -.489E+01   -.524E-05 -.329E-04 0.426E-04
   -.303E+02 -.346E+02 -.302E+03   0.303E+02 0.354E+02 0.304E+03   -.891E-02 -.854E+00 -.191E+01   0.484E-04 0.327E-04 -.480E-04
   0.546E+02 -.518E+02 -.218E+03   -.590E+02 0.551E+02 0.217E+03   0.441E+01 -.322E+01 0.753E+00   0.155E-04 -.179E-04 0.650E-04
   -.343E+02 -.435E+02 -.216E+03   0.380E+02 0.449E+02 0.213E+03   -.370E+01 -.145E+01 0.367E+01   -.236E-05 -.716E-05 0.832E-04
   0.600E+02 0.123E+02 -.237E+03   -.635E+02 -.136E+02 0.241E+03   0.350E+01 0.123E+01 -.402E+01   0.239E-04 0.989E-05 0.666E-04
   0.636E+02 -.142E+01 -.216E+03   -.665E+02 0.646E+00 0.211E+03   0.287E+01 0.762E+00 0.453E+01   0.782E-06 0.217E-04 0.117E-03
   -.511E+02 -.158E+02 -.244E+03   0.546E+02 0.177E+02 0.248E+03   -.351E+01 -.185E+01 -.372E+01   -.326E-04 0.189E-04 0.724E-04
   0.266E+02 -.144E+03 -.894E+03   -.267E+02 0.144E+03 0.895E+03   0.124E+00 0.621E-01 -.220E+00   0.108E-04 0.820E-05 0.308E-03
   -.526E+02 0.186E+02 -.981E+03   0.553E+02 -.167E+02 0.976E+03   -.269E+01 -.188E+01 0.482E+01   0.209E-04 0.118E-03 0.426E-03
   0.129E+03 -.151E+02 -.921E+03   -.129E+03 0.155E+02 0.922E+03   0.462E+00 -.377E+00 -.512E+00   -.200E-04 0.536E-04 0.386E-03
 -----------------------------------------------------------------------------------------------
   0.333E+02 0.222E+02 0.720E+02   0.000E+00 -.711E-13 -.432E-11   -.333E+02 -.223E+02 -.721E+02   0.824E-03 0.251E-02 0.292E-01
 
 
 POSITION                                       TOTAL-FORCE (eV/Angst)
 -----------------------------------------------------------------------------------
      0.99046      3.89727      0.91670        -1.490980     -1.875913     -0.690008
      4.22806      9.97101      0.91670        -1.491869     -1.887075     -0.762802
      8.54576      3.89727      0.91670        -1.350204     -1.922410     -0.772891
     11.78336      9.97101      0.91670        -1.352830     -1.840577     -0.741572
      0.16045     10.12553      1.16818        -0.273700      1.654657      0.404371
      4.47815      4.05179      1.16818        -0.194712      1.714054      0.177023
      7.71575     10.12553      1.16818        -0.093762      1.773444      0.162951
     12.03345      4.05179      1.16818        -0.160111      1.795403      0.524511
      3.52055      0.82336      1.36715        -0.861273     -0.875767      1.532308
      6.75815      6.89709      1.36715        -0.822859     -0.894848      1.544583
     11.07585      0.82336      1.36715        -0.772068     -0.829019      1.706761
     14.31345      6.89709      1.36715        -0.946484     -0.937414      1.754004
      2.69053      7.05173      1.61862         1.469347      0.461629     -2.510598
      7.00822      0.97799      1.61862         1.602585      0.433310     -2.502770
     10.24583      7.05173      1.61862         1.714738      0.400487     -2.433652
     14.56352      0.97799      1.61862         1.507497      0.504006     -2.450491
      0.53216     11.93146      4.09594        -0.002665     -0.000202     -0.004153
      4.85872      5.87237      4.10057         0.006459     -0.001363     -0.003654
      8.11917     11.95657      4.10926        -0.000588      0.002261      0.005152
     12.40953      5.87182      4.14375        -0.003280      0.000398     -0.000235
      0.81281      6.00702      4.37312        -0.000941     -0.001689     -0.000448
      4.04282     12.08314      4.36353        -0.001189      0.002156     -0.000423
      8.36455      5.98031      4.36760        -0.001083      0.001903     -0.003652
     11.59178     12.08755      4.38282        -0.001262     -0.000069     -0.002018
     -0.18394      2.79547      4.58744        -0.002486     -0.003224     -0.008574
      3.02991      8.86331      4.58460         0.002580      0.002093     -0.005722
      7.36603      2.77241      4.57340         0.002862      0.003050     -0.003401
     10.66198      8.85902      4.58524        -0.007383      0.005240      0.004740
      3.35218      2.93329      4.80384         0.002217     -0.000431     -0.008529
      6.56437      9.02318      4.78289         0.007567      0.001455      0.001916
     10.92560      2.97365      4.88337        -0.007600      0.000338      0.001571
     14.13047      8.98694      4.86158         0.002161      0.007997     -0.010007
      1.16044      7.79564      7.53175        -0.008475     -0.009595      0.009145
      5.44149      1.68695      7.48951        -0.003487     -0.004412      0.002217
      8.69051      7.85581      7.29494        -0.001338     -0.002251      0.004328
     13.05124      1.66438      7.52696        -0.000649      0.006387     -0.005027
      1.47690      1.94684      7.48035         0.003441     -0.004006     -0.002648
      4.68871      8.00799      7.49161         0.012574     -0.003574      0.003892
      8.95647      1.91683      7.54961         0.004313     -0.004794     -0.003013
     12.24326      8.06691      7.71341        -0.010344      0.004632     -0.002765
     -0.56195     10.79457      7.77942        -0.007918     -0.000216     -0.005038
      3.72386      4.71917      7.79424        -0.000425      0.004402     -0.002694
      6.94843     10.77143      7.77825         0.004782     -0.009362     -0.005055
     11.50748      4.65094      7.94209        -0.005266      0.010636      0.004469
     -0.22672      4.93884      8.05323         0.000263      0.003092      0.007327
      2.91940     11.00836      8.05548        -0.000897     -0.003386      0.003414
      7.18509      4.82660      8.00885         0.005723      0.013434      0.006210
     10.47789     11.01053      8.08149         0.003569     -0.004550     -0.005054
      9.97809      6.58689      9.95773        -0.001999      0.023071      0.005176
      0.18233      2.09605      0.00000         0.269579      0.968007      1.265611
      3.41993      8.16979      0.00000         0.288329      0.994575      1.269850
      7.73763      2.09605      0.00000         0.254138      0.974485      1.281882
     10.97523      8.16979      0.00000         0.239304      0.981716      1.284826
      2.77584      5.24249      0.37900        -0.005136     -0.927385      0.583438
      6.01345     11.31622      0.37900        -0.044170     -0.930408      0.585554
     10.33114      5.24249      0.37900        -0.104419     -0.920747      0.574528
     13.56875     11.31622      0.37900        -0.047858     -0.930167      0.566900
      2.16153     10.82255      0.59691         0.412166      1.202643     -0.186688
      6.47922      4.74881      0.59691         0.391506      1.220765     -0.190700
      9.71683     10.82255      0.59691         0.351038      1.181774     -0.196163
     14.03452      4.74881      0.59691         0.398767      1.180465     -0.214394
      2.73983      2.74654      1.05910         1.186290     -1.034439     -0.436428
      5.97744      8.82028      1.05910         1.160401     -1.057157     -0.408413
     10.29513      2.74654      1.05910         1.114834     -1.033865     -0.462435
     13.53273      8.82028      1.05910         1.135281     -1.026448     -0.472109
      0.94100      8.20246      1.47622        -1.103709     -0.305993     -0.901401
      5.25870      2.12872      1.47622        -1.118893     -0.312507     -0.889768
      8.49630      8.20246      1.47622        -1.190069     -0.319497     -0.893698
     12.81400      2.12872      1.47622        -1.146546     -0.326499     -0.909973
      1.51931      0.12646      1.93841         0.328625     -0.100215      0.218991
      4.75691      6.20019      1.93841         0.415216     -0.013749      0.224242
      9.07461      0.12646      1.93841         0.415801     -0.033911      0.264766
     12.31221      6.20019      1.93841         0.347665     -0.081065      0.329324
      0.90515      5.70640      2.15632        -0.375329      0.333345      0.100877
      4.14276     11.78014      2.15632        -0.352360      0.307886      0.135705
      8.46045      5.70640      2.15632        -0.418563      0.304811      0.196665
     11.69806     11.78014      2.15632        -0.417380      0.309718      0.191529
      0.26091      2.77910      2.53532         0.216550      0.381570      0.477830
      3.49852      8.85284      2.53532         0.232059      0.411159      0.600340
      7.81621      2.77910      2.53532         0.241848      0.388927      0.455514
     11.05382      8.85284      2.53532         0.262041      0.388545      0.574842
     -0.22471     10.11436      3.20471         0.011750     -0.001900      0.011952
      4.11370      4.05575      3.19762        -0.008299      0.004475      0.001994
      7.35084     10.13064      3.19683        -0.000615      0.003159     -0.005036
     11.66091      4.04084      3.21193         0.004014     -0.001424     -0.000046
      3.39496      1.13107      3.50053        -0.009297      0.000667      0.007878
      6.63473      7.20900      3.51597         0.000900     -0.012998     -0.004607
     10.95511      1.13833      3.52236         0.006630      0.002802      0.012780
     14.19035      7.20854      3.52169         0.013489     -0.008398     -0.007388
      2.80809      6.70743      3.84622        -0.002744      0.004274     -0.002060
      7.14014      0.61627      3.85097        -0.011505      0.006206      0.008835
     10.35921      6.70334      3.85443         0.002646      0.002446     -0.005179
     14.67026      0.63692      3.85453         0.006839      0.001783     -0.000854
      2.28070     10.80928      4.33269        -0.000095     -0.005089      0.001284
      6.59537      4.72703      4.32132         0.000439     -0.001659     -0.001983
      9.84153     10.79394      4.33733        -0.001673     -0.000354     -0.003764
     14.16328      4.74117      4.35292         0.009857     -0.006514      0.002436
      1.59883      4.06564      4.60401         0.000484     -0.003001      0.002107
      4.81953     10.14136      4.63622        -0.019095     -0.004296     -0.001465
      9.13160      4.06928      4.66067         0.003046     -0.008961      0.008457
     12.38246     10.15936      4.65698         0.013955     -0.001515      0.004848
      1.04411      8.15376      5.14562         0.000575     -0.005509     -0.000662
      5.35774      2.05025      5.09774        -0.004899      0.001663      0.010308
      8.61688      8.14348      5.12486         0.000054      0.000197     -0.008014
     12.92040      2.06226      5.19486         0.002556      0.000322     -0.005653
      1.60228      1.57414      5.35893        -0.008094     -0.002049      0.002274
      4.81009      7.65964      5.36727        -0.014584     -0.002191      0.002063
      9.15265      1.59159      5.40077        -0.009873      0.001377      0.006753
     12.37545      7.67391      5.40397         0.009350      0.005210     -0.013834
     -0.25501     10.84762      5.75192         0.009948      0.001838      0.009009
      4.05751      4.80355      5.76566        -0.001692     -0.000104     -0.007304
      7.30481     10.84652      5.75141        -0.000818     -0.007027      0.007030
     11.63462      4.77539      5.76647         0.009565      0.008973      0.004470
      0.53476      5.97887      6.44316         0.005232      0.002407     -0.001446
      3.66181     12.04887      6.42529        -0.001874      0.005132      0.003020
      7.93256      5.98741      6.44108         0.005547      0.003535      0.007784
     11.15366     12.06378      6.44126         0.002407      0.011337     -0.006311
      2.97624      9.11218      6.77169         0.001022     -0.003502      0.009209
      7.22822      3.03169      6.71800        -0.000385      0.002962     -0.005655
     10.51534      9.06685      6.80139         0.006603     -0.007958      0.003814
     -0.17570      3.05711      6.72743        -0.004202      0.002765     -0.000684
      3.46469      2.59438      6.96365         0.004746     -0.002221      0.002925
      6.68698      8.64122      6.94779        -0.003119     -0.006808      0.002715
     10.97770      2.64893      7.12536         0.006567      0.002840      0.002241
     14.25269      8.64138      7.04990         0.002051      0.007080      0.001539
      3.00506      6.73513      7.88496        -0.002766      0.006603      0.009074
      7.26224      0.61851      7.79709        -0.010931      0.013492     -0.003655
     10.44169      6.62733      7.80972        -0.004117      0.007509      0.016333
     14.88169      0.67452      7.86287         0.002721      0.009946      0.003083
      2.20617      0.03993      7.93179        -0.002944      0.008342     -0.002841
      5.44928      6.12748      8.03131        -0.001241      0.003976      0.001534
      8.62053     12.14687      8.03256         0.000684      0.003619      0.009493
     13.04766      6.10034      7.88247        -0.005812     -0.006382     -0.006300
      1.73508      3.88706      8.43813         0.008268      0.008758     -0.000596
      4.93811      9.94621      8.41635         0.003003     -0.006033      0.004056
      8.81277      3.67060      8.64608         0.005761      0.017416     -0.010678
     12.54082     10.15845      8.25419         0.010119     -0.016753      0.001931
      1.13034      9.71217      8.54499         0.001616      0.002715     -0.000597
      5.39552      3.61619      8.50931        -0.010286      0.001610     -0.004983
      8.60933      9.63277      8.48774        -0.012832     -0.001081     -0.003645
     13.19654      3.55985      8.50998         0.001293     -0.001624      0.005698
      0.43441      6.59903      8.99342         0.002991      0.003595     -0.001754
      4.72207      0.51055      8.97442         0.002069      0.002355     -0.005824
      8.10877      6.56675      9.05737        -0.001252     -0.003931      0.007839
     12.27481      0.50487      8.99140         0.006735     -0.000635      0.007693
     11.36195      8.16207      9.70310         0.030729      0.000824      0.018618
     11.00500      4.96130      9.94130         0.005485     -0.001328      0.003833
      9.71135      6.84916     12.39819         0.026619      0.015573     -0.001362
      9.47568     10.48267     12.97062         0.009290      0.011377     -0.017911
     10.93212      8.21120     10.82266         0.003407     -0.008862     -0.003648
      8.16039     10.86252     11.83587         0.002562      0.001705     -0.005182
      9.79245     10.50770     11.23134         0.006238      0.003576     -0.025013
      7.99805      8.49493     12.73349         0.020542      0.000205      0.008877
      8.13568      8.56248     10.98410         0.000670     -0.008598      0.001450
     10.67180      8.24115     12.74378         0.012536      0.013078     -0.010071
      9.04524     10.22939     11.99033         0.008044      0.016910      0.003878
      9.96770      7.86165     11.98826         0.025918      0.025662     -0.007931
      8.69944      8.74386     11.91955         0.007916     -0.003319      0.012599
 -----------------------------------------------------------------------------------
    total drift:                                0.070820     -0.032619     -0.095755


--------------------------------------------------------------------------------------------------------



  FREE ENERGIE OF THE ION-ELECTRON SYSTEM (eV)
  ---------------------------------------------------
  free  energy   TOTEN  =     -1349.05123314 eV

  energy  without entropy=    -1349.05123314  energy(sigma->0) =    -1349.05123314
 


--------------------------------------------------------------------------------------------------------


    POTLOK:  cpu time    0.2330: real time    0.2337


--------------------------------------------------------------------------------------------------------


 Dimer: Init Mode:
 Dimer: MODECAR found
 Dimer: -----------------
 Dimer: Itr    1 Rot    0

 Dimer: Central Point
 Dimer: F0      0.132351

 Dimer: Projection
 Dimer: N*F0 -3.415958726665946E-003
 Dimer: F0sq  1.751688801727525E-002
 Dimer: Feffsq   1.166877402228523E-005
 
 stress matrix after NEB project (eV)
    -49.87518    -24.36159      1.82692
    -24.36159    -70.17144      2.71794
      1.82692      2.71794     -9.48327
  FORCES: max atom, RMS     0.037325    0.010529
  FORCE total and by dimension    0.132351    0.030729
  Stress total and by dimension   93.326954   70.171437
 OPT: skip step - force has converged
 writing wavefunctions
     LOOP+:  cpu time  378.6392: real time  381.0193
    4ORBIT:  cpu time    0.0000: real time    0.0000

 total amount of memory used by VASP MPI-rank0   174547. kBytes
=======================================================================

   base      :      30000. kBytes
   nonlr-proj:      11331. kBytes
   fftplans  :       9317. kBytes
   grid      :      26149. kBytes
   one-center:        839. kBytes
   wavefun   :      96911. kBytes
 
  
  
 General timing and accounting informations for this job:
 ========================================================
  
                  Total CPU time used (sec):      408.039
                            User time (sec):      384.042
                          System time (sec):       23.997
                         Elapsed time (sec):      411.053
  
                   Maximum memory used (kb):      421564.
                   Average memory used (kb):           0.
  
                          Minor page faults:        95777
                          Major page faults:            0
                 Voluntary context switches:         1235
