       N       E                     dE             d eps       ncg     rms          rms(c)
DAV:   1    -0.132830313317E+04   -0.13283E+04   -0.12920E+00  6304   0.971E-01    0.948E-01
DAV:   2    -0.133003631985E+04   -0.17332E+01   -0.11520E+00  6144   0.943E-01    0.402E-01
DAV:   3    -0.133004601325E+04   -0.96934E-02   -0.39918E-02  6720   0.223E-01    0.275E-01
DAV:   4    -0.133004605753E+04   -0.44272E-04   -0.20191E-03  5568   0.556E-02    0.223E-01
DAV:   5    -0.133004606699E+04   -0.94650E-05   -0.19479E-04  6848   0.177E-02    0.188E-01
DAV:   6    -0.133004607929E+04   -0.12301E-04   -0.20934E-05  7072   0.683E-03    0.163E-01
DAV:   7    -0.133004608870E+04   -0.94062E-05   -0.23160E-05  6720   0.818E-03    0.129E-01
DAV:   8    -0.133004609545E+04   -0.67484E-05   -0.16292E-05  7072   0.634E-03    0.106E-01
DAV:   9    -0.133004610079E+04   -0.53438E-05   -0.52221E-06  7040   0.349E-03    0.894E-02
DAV:  10    -0.133004610879E+04   -0.79987E-05   -0.23429E-05  6624   0.834E-03    0.502E-02
DAV:  11    -0.133004611295E+04   -0.41642E-05   -0.31586E-05  6592   0.907E-03    0.131E-02
DAV:  12    -0.133004611397E+04   -0.10139E-05   -0.39948E-06  7168   0.251E-03    0.780E-03
DAV:  13    -0.133004611424E+04   -0.26998E-06   -0.74747E-07  6272   0.139E-03    0.248E-03
DAV:  14    -0.133004611433E+04   -0.92827E-07   -0.30229E-07  6816   0.712E-04    0.938E-04
DAV:  15    -0.133004611439E+04   -0.58280E-07   -0.20868E-08  3424   0.288E-04    0.913E-04
DAV:  16    -0.133004611448E+04   -0.94238E-07   -0.19731E-08  3648   0.194E-04    0.133E-03
DAV:  17    -0.133004611454E+04   -0.59707E-07   -0.47574E-09  3200   0.114E-04    0.110E-03
DAV:  18    -0.133004611462E+04   -0.78799E-07   -0.18168E-08  3424   0.219E-04    0.509E-04
DAV:  19    -0.133004611465E+04   -0.25160E-07   -0.61327E-09  3168   0.121E-04    0.263E-04
DAV:  20    -0.133004611465E+04   -0.30850E-08   -0.60472E-09  3136   0.116E-04
   1 F= -.13490512E+04 E0= -.13490512E+04  d E =-.134905E+04  mag=    -0.0000
       N       E                     dE             d eps       ncg     rms          rms(c)
DAV:   1    -0.133004503741E+04    0.10772E-02   -0.58053E-01  5120   0.892E-01    0.135E-01
DAV:   2    -0.133004533375E+04   -0.29634E-03   -0.49500E-03  5568   0.842E-02    0.976E-02
DAV:   3    -0.133004526260E+04    0.71154E-04   -0.60328E-04  6240   0.446E-02    0.340E-02
DAV:   4    -0.133004527009E+04   -0.74939E-05   -0.12149E-04  5920   0.155E-02    0.168E-02
DAV:   5    -0.133004526636E+04    0.37261E-05   -0.34064E-05  6080   0.889E-03    0.741E-03
DAV:   6    -0.133004526561E+04    0.75347E-06   -0.46127E-06  6368   0.330E-03    0.382E-03
DAV:   7    -0.133004526565E+04   -0.39829E-07   -0.28090E-06  6464   0.245E-03    0.191E-03
DAV:   8    -0.133004526572E+04   -0.67084E-07   -0.39755E-07  5712   0.107E-03    0.112E-03
DAV:   9    -0.133004526595E+04   -0.23242E-06   -0.20351E-07  5472   0.706E-04    0.590E-04
DAV:  10    -0.133004526618E+04   -0.23341E-06   -0.81491E-08  5312   0.551E-04    0.516E-04
DAV:  11    -0.133004526645E+04   -0.26627E-06   -0.57991E-08  5008   0.392E-04    0.242E-04
DAV:  12    -0.133004526674E+04   -0.29548E-06   -0.24086E-08  4128   0.255E-04    0.178E-04
DAV:  13    -0.133004526692E+04   -0.17976E-06   -0.92985E-09  3616   0.138E-04    0.162E-04
DAV:  14    -0.133004526710E+04   -0.17771E-06   -0.78878E-09  3424   0.107E-04    0.777E-05
DAV:  15    -0.133004526724E+04   -0.13402E-06   -0.64940E-09  3424   0.849E-05    0.675E-05
DAV:  16    -0.133004526730E+04   -0.67972E-07   -0.22959E-09  3168   0.545E-05    0.482E-05
DAV:  17    -0.133004526737E+04   -0.69354E-07   -0.30538E-09  3168   0.615E-05    0.314E-05
DAV:  18    -0.133004526739E+04   -0.18816E-07   -0.45100E-10  3072   0.378E-05    0.262E-05
DAV:  19    -0.133004526741E+04   -0.17753E-07    0.42468E-11  3072   0.289E-05    0.153E-05
DAV:  20    -0.133004526742E+04   -0.12311E-07    0.31127E-10  3072   0.202E-05    0.834E-06
DAV:  21    -0.133004526743E+04   -0.83819E-08    0.30581E-10  3072   0.186E-05
   2 F= -.13490505E+04 E0= -.13490505E+04  d E =0.711965E-03  mag=     0.0000
       N       E                     dE             d eps       ncg     rms          rms(c)
DAV:   1    -0.133004489448E+04    0.37295E-03   -0.11597E+00  5120   0.125E+00    0.152E-01
DAV:   2    -0.133004568453E+04   -0.79006E-03   -0.10644E-02  5568   0.113E-01    0.101E-01
DAV:   3    -0.133004558064E+04    0.10389E-03   -0.87792E-04  6464   0.415E-02    0.500E-02
DAV:   4    -0.133004557279E+04    0.78596E-05   -0.22145E-04  5760   0.222E-02    0.183E-02
DAV:   5    -0.133004556852E+04    0.42615E-05   -0.60630E-05  5600   0.121E-02    0.967E-03
DAV:   6    -0.133004556875E+04   -0.22160E-06   -0.10865E-05  5856   0.377E-03    0.563E-03
DAV:   7    -0.133004556846E+04    0.28654E-06   -0.32552E-06  6336   0.277E-03    0.283E-03
DAV:   8    -0.133004556865E+04   -0.19486E-06   -0.69289E-07  6272   0.127E-03    0.176E-03
DAV:   9    -0.133004556884E+04   -0.18907E-06   -0.26043E-07  6304   0.751E-04    0.663E-04
DAV:  10    -0.133004556913E+04   -0.29196E-06   -0.63141E-08  4800   0.367E-04    0.377E-04
DAV:  11    -0.133004556943E+04   -0.29374E-06   -0.21804E-08  4032   0.251E-04    0.273E-04
DAV:  12    -0.133004556971E+04   -0.27692E-06   -0.24463E-08  4128   0.220E-04    0.133E-04
DAV:  13    -0.133004556991E+04   -0.20192E-06   -0.69090E-09  3376   0.115E-04    0.915E-05
DAV:  14    -0.133004557006E+04   -0.15508E-06   -0.61333E-09  3408   0.816E-05    0.584E-05
DAV:  15    -0.133004557017E+04   -0.11145E-06   -0.38672E-09  3232   0.679E-05    0.393E-05
DAV:  16    -0.133004557024E+04   -0.69092E-07   -0.31044E-09  3136   0.507E-05    0.407E-05
DAV:  17    -0.133004557026E+04   -0.16487E-07   -0.49397E-10  3136   0.383E-05    0.259E-05
DAV:  18    -0.133004557029E+04   -0.26484E-07   -0.13543E-09  3104   0.484E-05    0.427E-05
DAV:  19    -0.133004557029E+04   -0.74215E-08    0.24562E-10  3072   0.288E-05
   3 F= -.13490508E+04 E0= -.13490508E+04  d E =-.289293E-03  mag=    -0.0000
       N       E                     dE             d eps       ncg     rms          rms(c)
DAV:   1    -0.133004529025E+04    0.28003E-03   -0.11522E+00  5120   0.124E+00    0.132E-01
DAV:   2    -0.133004579458E+04   -0.50433E-03   -0.92622E-03  5632   0.114E-01    0.931E-02
DAV:   3    -0.133004565941E+04    0.13517E-03   -0.98157E-04  6400   0.466E-02    0.447E-02
DAV:   4    -0.133004565249E+04    0.69194E-05   -0.18451E-04  5824   0.195E-02    0.184E-02
DAV:   5    -0.133004564953E+04    0.29579E-05   -0.45447E-05  5600   0.112E-02    0.846E-03
DAV:   6    -0.133004564955E+04   -0.19383E-07   -0.61427E-06  5728   0.353E-03    0.424E-03
DAV:   7    -0.133004565042E+04   -0.86727E-06   -0.34652E-06  6240   0.287E-03    0.265E-03
DAV:   8    -0.133004565095E+04   -0.53058E-06   -0.73428E-07  6272   0.130E-03    0.139E-03
DAV:   9    -0.133004565216E+04   -0.12083E-05   -0.37898E-07  5888   0.980E-04    0.803E-04
DAV:  10    -0.133004565319E+04   -0.10334E-05   -0.13011E-07  5568   0.630E-04    0.638E-04
DAV:  11    -0.133004565402E+04   -0.82164E-06   -0.75359E-08  5408   0.434E-04    0.271E-04
DAV:  12    -0.133004565508E+04   -0.10616E-05   -0.51985E-08  4320   0.353E-04    0.207E-04
DAV:  13    -0.133004565563E+04   -0.55578E-06   -0.31478E-08  4352   0.204E-04    0.169E-04
DAV:  14    -0.133004565600E+04   -0.36600E-06   -0.10202E-08  3680   0.109E-04    0.950E-05
DAV:  15    -0.133004565633E+04   -0.33466E-06   -0.14063E-08  3840   0.909E-05    0.707E-05
DAV:  16    -0.133004565645E+04   -0.11505E-06   -0.20862E-09  3264   0.585E-05    0.458E-05
DAV:  17    -0.133004565659E+04   -0.13704E-06   -0.46797E-09  3328   0.659E-05    0.539E-05
DAV:  18    -0.133004565663E+04   -0.45606E-07   -0.68708E-10  3200   0.445E-05    0.393E-05
DAV:  19    -0.133004565666E+04   -0.33309E-07   -0.97703E-10  3072   0.489E-05    0.357E-05
DAV:  20    -0.133004565668E+04   -0.16880E-07    0.10067E-10  3104   0.335E-05    0.223E-05
DAV:  21    -0.133004565669E+04   -0.10012E-07    0.30105E-10  3072   0.277E-05    0.138E-05
DAV:  22    -0.133004565669E+04   -0.22847E-08    0.70576E-10  2944   0.183E-05
   4 F= -.13490509E+04 E0= -.13490509E+04  d E =-.162260E-03  mag=     0.0000
       N       E                     dE             d eps       ncg     rms          rms(c)
DAV:   1    -0.133004514484E+04    0.51185E-03   -0.11534E+00  5120   0.126E+00    0.169E-01
DAV:   2    -0.133004617257E+04   -0.10277E-02   -0.13402E-02  5632   0.130E-01    0.116E-01
DAV:   3    -0.133004600617E+04    0.16641E-03   -0.98062E-04  6432   0.462E-02    0.674E-02
DAV:   4    -0.133004597218E+04    0.33983E-04   -0.44624E-04  5856   0.357E-02    0.224E-02
DAV:   5    -0.133004596615E+04    0.60318E-05   -0.11294E-04  5728   0.164E-02    0.145E-02
DAV:   6    -0.133004596459E+04    0.15633E-05   -0.35796E-05  5952   0.757E-03    0.891E-03
DAV:   7    -0.133004596328E+04    0.13112E-05   -0.72843E-06  6784   0.448E-03    0.406E-03
DAV:   8    -0.133004596322E+04    0.55923E-07   -0.37666E-06  5920   0.312E-03    0.329E-03
DAV:   9    -0.133004596321E+04    0.11161E-07   -0.11692E-06  6624   0.193E-03    0.145E-03
DAV:  10    -0.133004596426E+04   -0.10518E-05   -0.77061E-07  5856   0.148E-03    0.130E-03
DAV:  11    -0.133004596541E+04   -0.11512E-05   -0.24815E-07  5984   0.110E-03    0.107E-03
DAV:  12    -0.133004596673E+04   -0.13140E-05   -0.28809E-07  5440   0.874E-04    0.346E-04
DAV:  13    -0.133004596782E+04   -0.10889E-05   -0.84190E-08  5216   0.394E-04    0.305E-04
DAV:  14    -0.133004596857E+04   -0.75357E-06   -0.22897E-08  3680   0.181E-04    0.242E-04
DAV:  15    -0.133004596956E+04   -0.98981E-06   -0.45449E-08  4064   0.170E-04    0.117E-04
DAV:  16    -0.133004596994E+04   -0.38037E-06   -0.10910E-08  3488   0.107E-04    0.622E-05
DAV:  17    -0.133004597021E+04   -0.27119E-06   -0.81161E-09  3424   0.851E-05    0.674E-05
DAV:  18    -0.133004597035E+04   -0.14293E-06   -0.36925E-09  3200   0.700E-05    0.661E-05
DAV:  19    -0.133004597043E+04   -0.75117E-07   -0.31274E-09  3168   0.791E-05    0.307E-05
DAV:  20    -0.133004597045E+04   -0.25262E-07   -0.16106E-09  3072   0.737E-05    0.235E-05
DAV:  21    -0.133004597046E+04   -0.86438E-08   -0.11165E-10  3072   0.387E-05
   5 F= -.13490509E+04 E0= -.13490509E+04  d E =0.564980E-04  mag=    -0.0000
       N       E                     dE             d eps       ncg     rms          rms(c)
DAV:   1    -0.133004549153E+04    0.47893E-03   -0.11605E+00  5120   0.113E+00    0.937E-02
DAV:   2    -0.133004592671E+04   -0.43518E-03   -0.70817E-03  5568   0.885E-02    0.568E-02
DAV:   3    -0.133004583630E+04    0.90405E-04   -0.63719E-04  6176   0.300E-02    0.227E-02
DAV:   4    -0.133004583055E+04    0.57583E-05   -0.92516E-05  6048   0.115E-02    0.133E-02
DAV:   5    -0.133004582903E+04    0.15156E-05   -0.97640E-06  5984   0.435E-03    0.609E-03
DAV:   6    -0.133004582824E+04    0.78612E-06   -0.22124E-06  5696   0.240E-03    0.198E-03
DAV:   7    -0.133004582835E+04   -0.10166E-06   -0.94510E-07  6784   0.137E-03    0.132E-03
DAV:   8    -0.133004582853E+04   -0.18421E-06   -0.23364E-07  5568   0.706E-04    0.816E-04
DAV:   9    -0.133004582898E+04   -0.44987E-06   -0.10895E-07  5568   0.558E-04    0.500E-04
DAV:  10    -0.133004582938E+04   -0.39670E-06   -0.73675E-08  5008   0.442E-04    0.267E-04
DAV:  11    -0.133004582982E+04   -0.44574E-06   -0.43732E-08  4560   0.326E-04    0.211E-04
DAV:  12    -0.133004583026E+04   -0.43891E-06   -0.21934E-08  3712   0.215E-04    0.144E-04
DAV:  13    -0.133004583059E+04   -0.33075E-06   -0.20937E-08  3872   0.170E-04    0.746E-05
DAV:  14    -0.133004583077E+04   -0.18180E-06   -0.57222E-09  3360   0.997E-05    0.598E-05
DAV:  15    -0.133004583093E+04   -0.15639E-06   -0.50606E-09  3424   0.853E-05    0.351E-05
DAV:  16    -0.133004583103E+04   -0.10108E-06   -0.37094E-09  3328   0.940E-05    0.276E-05
DAV:  17    -0.133004583110E+04   -0.65862E-07   -0.28081E-09  3232   0.841E-05    0.263E-05
DAV:  18    -0.133004583114E+04   -0.38184E-07   -0.95906E-10  3072   0.532E-05    0.147E-05
DAV:  19    -0.133004583116E+04   -0.20780E-07   -0.26782E-10  3072   0.383E-05    0.204E-05
DAV:  20    -0.133004583116E+04   -0.79890E-08    0.22474E-10  3072   0.265E-05
   6 F= -.13490509E+04 E0= -.13490509E+04  d E =0.100512E-04  mag=    -0.0000
       N       E                     dE             d eps       ncg     rms          rms(c)
DAV:   1    -0.133004473486E+04    0.10963E-02   -0.11627E+00  5120   0.112E+00    0.154E-01
DAV:   2    -0.133004543416E+04   -0.69930E-03   -0.11087E-02  5600   0.109E-01    0.103E-01
DAV:   3    -0.133004527828E+04    0.15588E-03   -0.11500E-03  6208   0.526E-02    0.429E-02
DAV:   4    -0.133004527880E+04   -0.51367E-06   -0.24724E-04  6304   0.204E-02    0.226E-02
DAV:   5    -0.133004527002E+04    0.87781E-05   -0.46856E-05  6496   0.103E-02    0.102E-02
DAV:   6    -0.133004526696E+04    0.30551E-05   -0.69854E-06  6208   0.421E-03    0.491E-03
DAV:   7    -0.133004526706E+04   -0.96858E-07   -0.41538E-06  6336   0.301E-03    0.237E-03
DAV:   8    -0.133004526781E+04   -0.74800E-06   -0.91246E-07  6848   0.179E-03    0.160E-03
DAV:   9    -0.133004527009E+04   -0.22851E-05   -0.54143E-07  6176   0.175E-03    0.939E-04
DAV:  10    -0.133004527271E+04   -0.26197E-05   -0.49614E-07  6112   0.136E-03    0.850E-04
DAV:  11    -0.133004527543E+04   -0.27207E-05   -0.43378E-07  5600   0.969E-04    0.462E-04
DAV:  12    -0.133004527775E+04   -0.23169E-05   -0.14077E-07  5440   0.543E-04    0.378E-04
DAV:  13    -0.133004527908E+04   -0.13262E-05   -0.63179E-08  4576   0.261E-04    0.272E-04
DAV:  14    -0.133004528030E+04   -0.12240E-05   -0.40458E-08  4128   0.181E-04    0.137E-04
DAV:  15    -0.133004528119E+04   -0.88515E-06   -0.29600E-08  3744   0.139E-04    0.139E-04
DAV:  16    -0.133004528158E+04   -0.38948E-06   -0.85659E-09  3456   0.936E-05    0.894E-05
DAV:  17    -0.133004528192E+04   -0.34489E-06   -0.10422E-08  3520   0.903E-05    0.609E-05
DAV:  18    -0.133004528205E+04   -0.13295E-06   -0.28077E-09  3200   0.633E-05    0.372E-05
DAV:  19    -0.133004528214E+04   -0.88810E-07   -0.21999E-09  3136   0.568E-05    0.343E-05
DAV:  20    -0.133004528218E+04   -0.33018E-07   -0.34133E-10  3072   0.415E-05    0.293E-05
DAV:  21    -0.133004528220E+04   -0.20940E-07    0.12439E-10  3072   0.317E-05    0.135E-05
DAV:  22    -0.133004528221E+04   -0.95024E-08    0.51418E-10  3072   0.239E-05
   7 F= -.13490508E+04 E0= -.13490508E+04  d E =0.628991E-04  mag=    -0.0000
       N       E                     dE             d eps       ncg     rms          rms(c)
DAV:   1    -0.133004473804E+04    0.54415E-03   -0.11578E+00  5120   0.115E+00    0.180E-01
DAV:   2    -0.133004587603E+04   -0.11380E-02   -0.14368E-02  5728   0.120E-01    0.133E-01
DAV:   3    -0.133004568191E+04    0.19412E-03   -0.13170E-03  6368   0.543E-02    0.710E-02
DAV:   4    -0.133004566562E+04    0.16295E-04   -0.42485E-04  6176   0.339E-02    0.239E-02
DAV:   5    -0.133004565376E+04    0.11856E-04   -0.14203E-04  5664   0.201E-02    0.122E-02
DAV:   6    -0.133004565131E+04    0.24500E-05   -0.25278E-05  5728   0.615E-03    0.637E-03
DAV:   7    -0.133004565087E+04    0.44300E-06   -0.50972E-06  6816   0.357E-03    0.367E-03
DAV:   8    -0.133004565069E+04    0.18025E-06   -0.18986E-06  6816   0.280E-03    0.257E-03
DAV:   9    -0.133004565123E+04   -0.54423E-06   -0.12180E-06  6784   0.229E-03    0.122E-03
DAV:  10    -0.133004565324E+04   -0.20076E-05   -0.69068E-07  6208   0.153E-03    0.128E-03
DAV:  11    -0.133004565580E+04   -0.25614E-05   -0.42936E-07  5824   0.133E-03    0.648E-04
DAV:  12    -0.133004565827E+04   -0.24645E-05   -0.30649E-07  5456   0.799E-04    0.353E-04
DAV:  13    -0.133004565975E+04   -0.14804E-05   -0.86851E-08  5248   0.353E-04    0.268E-04
DAV:  14    -0.133004566106E+04   -0.13157E-05   -0.31942E-08  3744   0.159E-04    0.157E-04
DAV:  15    -0.133004566227E+04   -0.12038E-05   -0.41601E-08  4032   0.141E-04    0.130E-04
DAV:  16    -0.133004566292E+04   -0.65628E-06   -0.15312E-08  3552   0.997E-05    0.941E-05
DAV:  17    -0.133004566331E+04   -0.38315E-06   -0.96288E-09  3520   0.930E-05    0.570E-05
DAV:  18    -0.133004566349E+04   -0.18640E-06   -0.49263E-09  3232   0.918E-05    0.526E-05
DAV:  19    -0.133004566358E+04   -0.87544E-07   -0.35623E-09  3168   0.837E-05    0.421E-05
DAV:  20    -0.133004566360E+04   -0.24505E-07   -0.12557E-09  3136   0.659E-05    0.245E-05
DAV:  21    -0.133004566362E+04   -0.20489E-07   -0.59288E-10  3072   0.483E-05    0.215E-05
DAV:  22    -0.133004566363E+04   -0.86002E-08    0.15936E-10  3072   0.296E-05
   8 F= -.13490507E+04 E0= -.13490507E+04  d E =0.156888E-03  mag=     0.0000
       N       E                     dE             d eps       ncg     rms          rms(c)
DAV:   1    -0.133004445258E+04    0.12110E-02   -0.11695E+00  5120   0.113E+00    0.319E-01
DAV:   2    -0.133004508299E+04   -0.63040E-03   -0.11034E-02  5632   0.122E-01    0.263E-01
DAV:   3    -0.133004493268E+04    0.15031E-03   -0.26286E-03  6144   0.101E-01    0.535E-02
DAV:   4    -0.133004491162E+04    0.21062E-04   -0.66048E-04  5664   0.377E-02    0.324E-02
DAV:   5    -0.133004490088E+04    0.10734E-04   -0.14667E-04  6464   0.179E-02    0.166E-02
DAV:   6    -0.133004489897E+04    0.19103E-05   -0.28662E-05  6752   0.793E-03    0.707E-03
DAV:   7    -0.133004489891E+04    0.59546E-07   -0.32242E-06  6336   0.251E-03    0.361E-03
DAV:   8    -0.133004490033E+04   -0.14130E-05   -0.10666E-06  7184   0.157E-03    0.173E-03
DAV:   9    -0.133004490181E+04   -0.14823E-05   -0.46816E-07  6208   0.117E-03    0.102E-03
DAV:  10    -0.133004490372E+04   -0.19125E-05   -0.19042E-07  5408   0.670E-04    0.601E-04
DAV:  11    -0.133004490585E+04   -0.21333E-05   -0.18702E-07  4896   0.721E-04    0.380E-04
DAV:  12    -0.133004490748E+04   -0.16298E-05   -0.13417E-07  5056   0.456E-04    0.340E-04
DAV:  13    -0.133004490831E+04   -0.82333E-06   -0.35737E-08  4448   0.205E-04    0.222E-04
DAV:  14    -0.133004490908E+04   -0.77604E-06   -0.25250E-08  4032   0.147E-04    0.140E-04
DAV:  15    -0.133004490949E+04   -0.41092E-06   -0.85994E-09  3552   0.893E-05    0.995E-05
DAV:  16    -0.133004490981E+04   -0.31694E-06   -0.82860E-09  3584   0.803E-05    0.631E-05
DAV:  17    -0.133004491002E+04   -0.20702E-06   -0.40820E-09  3232   0.679E-05    0.374E-05
DAV:  18    -0.133004491013E+04   -0.11563E-06   -0.31949E-09  3232   0.572E-05    0.279E-05
DAV:  19    -0.133004491018E+04   -0.43467E-07   -0.87418E-10  3072   0.526E-05    0.177E-05
DAV:  20    -0.133004491021E+04   -0.36845E-07   -0.61553E-10  3136   0.411E-05    0.150E-05
DAV:  21    -0.133004491023E+04   -0.11845E-07    0.26307E-10  3072   0.260E-05    0.117E-05
DAV:  22    -0.133004491024E+04   -0.87748E-08    0.61231E-10  3072   0.180E-05
   9 F= -.13490502E+04 E0= -.13490502E+04  d E =0.489043E-03  mag=    -0.0000
       N       E                     dE             d eps       ncg     rms          rms(c)
DAV:   1    -0.133004480070E+04    0.10953E-03   -0.11466E+00  5120   0.113E+00    0.233E-01
DAV:   2    -0.133004581467E+04   -0.10140E-02   -0.12725E-02  5920   0.102E-01    0.170E-01
DAV:   3    -0.133004562235E+04    0.19232E-03   -0.13579E-03  6304   0.508E-02    0.809E-02
DAV:   4    -0.133004560625E+04    0.16098E-04   -0.33523E-04  5696   0.210E-02    0.312E-02
DAV:   5    -0.133004559727E+04    0.89832E-05   -0.13258E-04  5696   0.179E-02    0.124E-02
DAV:   6    -0.133004560011E+04   -0.28421E-05   -0.21741E-05  5568   0.615E-03    0.540E-03
DAV:   7    -0.133004560541E+04   -0.52973E-05   -0.54692E-06  6496   0.334E-03    0.265E-03
DAV:   8    -0.133004560893E+04   -0.35208E-05   -0.92700E-07  5888   0.126E-03    0.155E-03
DAV:   9    -0.133004561542E+04   -0.64893E-05   -0.82115E-07  5280   0.124E-03    0.129E-03
DAV:  10    -0.133004562089E+04   -0.54757E-05   -0.48820E-07  5760   0.736E-04    0.967E-04
DAV:  11    -0.133004562574E+04   -0.48443E-05   -0.64061E-07  5408   0.852E-04    0.657E-04
DAV:  12    -0.133004562864E+04   -0.29017E-05   -0.20244E-07  5056   0.496E-04    0.668E-04
DAV:  13    -0.133004563009E+04   -0.14474E-05   -0.88609E-08  5152   0.314E-04    0.298E-04
DAV:  14    -0.133004563167E+04   -0.15787E-05   -0.74773E-08  4416   0.214E-04    0.127E-04
DAV:  15    -0.133004563236E+04   -0.69175E-06   -0.19431E-08  4256   0.121E-04    0.983E-05
DAV:  16    -0.133004563299E+04   -0.63307E-06   -0.21019E-08  4032   0.101E-04    0.531E-05
DAV:  17    -0.133004563327E+04   -0.27609E-06   -0.60220E-09  3392   0.692E-05    0.684E-05
DAV:  18    -0.133004563340E+04   -0.13306E-06   -0.26437E-09  3200   0.557E-05    0.472E-05
DAV:  19    -0.133004563346E+04   -0.62413E-07   -0.10769E-09  3072   0.542E-05    0.207E-05
DAV:  20    -0.133004563350E+04   -0.39814E-07   -0.66119E-10  3136   0.447E-05    0.319E-05
DAV:  21    -0.133004563353E+04   -0.26543E-07    0.20290E-10  3072   0.288E-05    0.322E-05
DAV:  22    -0.133004563354E+04   -0.95315E-08    0.46569E-10  3072   0.227E-05
  10 F= -.13490508E+04 E0= -.13490508E+04  d E =-.648901E-03  mag=     0.0000
       N       E                     dE             d eps       ncg     rms          rms(c)
DAV:   1    -0.133004573715E+04   -0.10362E-03   -0.61022E-01  5120   0.823E-01    0.140E-01
DAV:   2    -0.133004621496E+04   -0.47781E-03   -0.69566E-03  5888   0.793E-02    0.971E-02
DAV:   3    -0.133004611590E+04    0.99061E-04   -0.74235E-04  6336   0.383E-02    0.552E-02
DAV:   4    -0.133004610410E+04    0.11796E-04   -0.20759E-04  5600   0.210E-02    0.198E-02
DAV:   5    -0.133004609781E+04    0.62970E-05   -0.88929E-05  5504   0.163E-02    0.883E-03
DAV:   6    -0.133004609760E+04    0.20448E-06   -0.12748E-05  5696   0.460E-03    0.476E-03
DAV:   7    -0.133004609843E+04   -0.82383E-06   -0.28111E-06  6784   0.259E-03    0.276E-03
DAV:   8    -0.133004609990E+04   -0.14760E-05   -0.49423E-07  6080   0.134E-03    0.166E-03
DAV:   9    -0.133004610208E+04   -0.21799E-05   -0.44151E-07  6048   0.142E-03    0.772E-04
DAV:  10    -0.133004610473E+04   -0.26477E-05   -0.37722E-07  5312   0.994E-04    0.921E-04
DAV:  11    -0.133004610732E+04   -0.25938E-05   -0.26985E-07  5184   0.769E-04    0.511E-04
DAV:  12    -0.133004610865E+04   -0.13280E-05   -0.12120E-07  5216   0.427E-04    0.368E-04
DAV:  13    -0.133004610974E+04   -0.10851E-05   -0.43409E-08  4320   0.285E-04    0.203E-04
DAV:  14    -0.133004611048E+04   -0.74104E-06   -0.17064E-08  3712   0.134E-04    0.147E-04
DAV:  15    -0.133004611134E+04   -0.86261E-06   -0.30866E-08  4032   0.136E-04    0.980E-05
DAV:  16    -0.133004611166E+04   -0.31912E-06   -0.52221E-09  3328   0.792E-05    0.725E-05
DAV:  17    -0.133004611188E+04   -0.21882E-06   -0.40862E-09  3264   0.662E-05    0.404E-05
DAV:  18    -0.133004611200E+04   -0.12311E-06   -0.22596E-09  3136   0.635E-05    0.256E-05
DAV:  19    -0.133004611206E+04   -0.55821E-07   -0.15678E-09  3136   0.583E-05    0.268E-05
DAV:  20    -0.133004611208E+04   -0.18408E-07   -0.40589E-10  3104   0.492E-05    0.197E-05
DAV:  21    -0.133004611209E+04   -0.89058E-08    0.20077E-10  3072   0.324E-05
  11 F= -.13490512E+04 E0= -.13490512E+04  d E =-.375986E-03  mag=     0.0000
       N       E                     dE             d eps       ncg     rms          rms(c)
DAV:   1    -0.133004525031E+04    0.86176E-03   -0.74317E-02  5184   0.134E-01    0.984E-02
DAV:   2    -0.133004516263E+04    0.87688E-04   -0.72589E-04  5632   0.160E-02    0.546E-02
DAV:   3    -0.133004515785E+04    0.47738E-05   -0.31819E-04  5792   0.102E-02    0.181E-02
DAV:   4    -0.133004515107E+04    0.67832E-05   -0.46462E-05  5952   0.491E-03    0.946E-03
DAV:   5    -0.133004515172E+04   -0.65073E-06   -0.84631E-06  6432   0.211E-03    0.207E-03
DAV:   6    -0.133004515181E+04   -0.91692E-07   -0.46274E-07  5696   0.707E-04    0.111E-03
DAV:   7    -0.133004515201E+04   -0.20176E-06   -0.13736E-07  4928   0.342E-04    0.488E-04
DAV:   8    -0.133004515222E+04   -0.20623E-06   -0.27494E-08  4128   0.218E-04    0.262E-04
DAV:   9    -0.133004515248E+04   -0.26338E-06   -0.13188E-08  3552   0.143E-04    0.149E-04
DAV:  10    -0.133004515277E+04   -0.28695E-06   -0.12230E-08  3552   0.130E-04    0.895E-05
DAV:  11    -0.133004515303E+04   -0.25940E-06   -0.11563E-08  3584   0.113E-04    0.710E-05
DAV:  12    -0.133004515317E+04   -0.14345E-06   -0.46122E-09  3440   0.744E-05    0.438E-05
DAV:  13    -0.133004515330E+04   -0.12932E-06   -0.45818E-09  3328   0.696E-05    0.297E-05
DAV:  14    -0.133004515335E+04   -0.49287E-07   -0.18220E-09  3104   0.579E-05    0.255E-05
DAV:  15    -0.133004515340E+04   -0.49302E-07   -0.15477E-09  3168   0.515E-05    0.163E-05
DAV:  16    -0.133004515343E+04   -0.27212E-07   -0.56266E-10  3072   0.403E-05    0.205E-05
DAV:  17    -0.133004515344E+04   -0.78726E-08    0.21580E-10  3072   0.253E-05
  12 F= -.13490502E+04 E0= -.13490502E+04  d E =0.960010E-03  mag=    -0.0000
       N       E                     dE             d eps       ncg     rms          rms(c)
DAV:   1    -0.133004608934E+04   -0.93591E-03   -0.80687E-02  5248   0.139E-01    0.133E-01
DAV:   2    -0.133004586494E+04    0.22440E-03   -0.15049E-03  5504   0.236E-02    0.710E-02
DAV:   3    -0.133004583872E+04    0.26219E-04   -0.67715E-04  5728   0.141E-02    0.275E-02
DAV:   4    -0.133004582343E+04    0.15291E-04   -0.93054E-05  5920   0.669E-03    0.147E-02
DAV:   5    -0.133004582374E+04   -0.31796E-06   -0.15155E-05  6304   0.321E-03    0.301E-03
DAV:   6    -0.133004582378E+04   -0.30865E-07   -0.10546E-06  6336   0.110E-03    0.157E-03
DAV:   7    -0.133004582389E+04   -0.11803E-06   -0.31454E-07  5312   0.498E-04    0.670E-04
DAV:   8    -0.133004582404E+04   -0.14818E-06   -0.70838E-08  4560   0.305E-04    0.359E-04
DAV:   9    -0.133004582419E+04   -0.15226E-06   -0.13822E-08  3744   0.146E-04    0.196E-04
DAV:  10    -0.133004582437E+04   -0.17285E-06   -0.12118E-08  3792   0.131E-04    0.112E-04
DAV:  11    -0.133004582453E+04   -0.16278E-06   -0.65200E-09  3552   0.924E-05    0.849E-05
DAV:  12    -0.133004582467E+04   -0.13632E-06   -0.54376E-09  3488   0.753E-05    0.571E-05
DAV:  13    -0.133004582478E+04   -0.11314E-06   -0.56499E-09  3584   0.745E-05    0.345E-05
DAV:  14    -0.133004582483E+04   -0.53580E-07   -0.26213E-09  3200   0.676E-05    0.254E-05
DAV:  15    -0.133004582487E+04   -0.39319E-07   -0.18104E-09  3200   0.591E-05    0.169E-05
DAV:  16    -0.133004582490E+04   -0.33077E-07   -0.90260E-10  3104   0.406E-05    0.159E-05
DAV:  17    -0.133004582492E+04   -0.14072E-07   -0.49086E-11  3056   0.280E-05    0.836E-06
DAV:  18    -0.133004582493E+04   -0.12398E-07    0.15375E-10  3072   0.240E-05    0.130E-05
DAV:  19    -0.133004582494E+04   -0.38708E-08    0.45292E-10  2944   0.156E-05
  13 F= -.13490508E+04 E0= -.13490508E+04  d E =-.612199E-03  mag=    -0.0000
       N       E                     dE             d eps       ncg     rms          rms(c)
DAV:   1    -0.133004574566E+04    0.79270E-04   -0.72775E-02  5056   0.165E-01    0.837E-02
DAV:   2    -0.133004576323E+04   -0.17569E-04   -0.74247E-04  5824   0.164E-02    0.511E-02
DAV:   3    -0.133004576203E+04    0.11990E-05   -0.22415E-04  5920   0.111E-02    0.142E-02
DAV:   4    -0.133004575868E+04    0.33556E-05   -0.28084E-05  5856   0.386E-03    0.943E-03
DAV:   5    -0.133004575816E+04    0.51969E-06   -0.12463E-05  5376   0.246E-03    0.229E-03
DAV:   6    -0.133004575862E+04   -0.46103E-06   -0.96662E-07  5344   0.935E-04    0.109E-03
DAV:   7    -0.133004575916E+04   -0.54142E-06   -0.19742E-07  4896   0.397E-04    0.477E-04
DAV:   8    -0.133004575987E+04   -0.71402E-06   -0.71450E-08  4384   0.266E-04    0.326E-04
DAV:   9    -0.133004576032E+04   -0.44591E-06   -0.17413E-08  3648   0.145E-04    0.188E-04
DAV:  10    -0.133004576095E+04   -0.63234E-06   -0.32917E-08  4096   0.171E-04    0.168E-04
DAV:  11    -0.133004576121E+04   -0.25950E-06   -0.71280E-09  3616   0.967E-05    0.136E-04
DAV:  12    -0.133004576150E+04   -0.29130E-06   -0.98167E-09  3552   0.972E-05    0.780E-05
DAV:  13    -0.133004576167E+04   -0.16921E-06   -0.34672E-09  3488   0.577E-05    0.616E-05
DAV:  14    -0.133004576181E+04   -0.13424E-06   -0.23679E-09  3296   0.573E-05    0.300E-05
DAV:  15    -0.133004576189E+04   -0.82233E-07   -0.11524E-09  3136   0.521E-05    0.312E-05
DAV:  16    -0.133004576192E+04   -0.36569E-07   -0.33154E-10  3072   0.429E-05    0.194E-05
DAV:  17    -0.133004576195E+04   -0.21071E-07    0.10847E-11  3072   0.340E-05    0.129E-05
DAV:  18    -0.133004576196E+04   -0.11787E-07    0.39210E-10  3072   0.218E-05    0.167E-05
DAV:  19    -0.133004576196E+04   -0.43510E-08    0.69753E-10  3072   0.145E-05
  14 F= -.13490509E+04 E0= -.13490509E+04  d E =-.637551E-04  mag=     0.0000
       N       E                     dE             d eps       ncg     rms          rms(c)
DAV:   1    -0.133004593841E+04   -0.17645E-03   -0.72366E-02  4512   0.164E-01    0.776E-02
DAV:   2    -0.133004594949E+04   -0.11086E-04   -0.44513E-04  4704   0.120E-02    0.468E-02
DAV:   3    -0.133004595371E+04   -0.42149E-05   -0.76077E-05  5600   0.515E-03    0.608E-03
DAV:   4    -0.133004595364E+04    0.63505E-07   -0.74363E-06  4928   0.147E-03    0.399E-03
DAV:   5    -0.133004595404E+04   -0.39942E-06   -0.32035E-06  4800   0.104E-03    0.129E-03
DAV:   6    -0.133004595437E+04   -0.32950E-06   -0.36350E-07  4352   0.387E-04    0.670E-04
DAV:   7    -0.133004595508E+04   -0.70823E-06   -0.10458E-07  4000   0.213E-04    0.252E-04
DAV:   8    -0.133004595556E+04   -0.47909E-06   -0.24751E-08  3648   0.999E-05    0.180E-04
DAV:   9    -0.133004595619E+04   -0.62519E-06   -0.18533E-08  3584   0.951E-05    0.973E-05
DAV:  10    -0.133004595675E+04   -0.56493E-06   -0.22500E-08  3840   0.100E-04    0.636E-05
DAV:  11    -0.133004595702E+04   -0.26985E-06   -0.65668E-09  3552   0.940E-05    0.469E-05
DAV:  12    -0.133004595725E+04   -0.22713E-06   -0.67467E-09  3520   0.942E-05    0.282E-05
DAV:  13    -0.133004595736E+04   -0.11282E-06   -0.27995E-09  3168   0.704E-05    0.187E-05
DAV:  14    -0.133004595741E+04   -0.46042E-07   -0.10468E-09  3072   0.496E-05    0.123E-05
DAV:  15    -0.133004595743E+04   -0.26106E-07   -0.27868E-10  3072   0.353E-05    0.853E-06
DAV:  16    -0.133004595744E+04   -0.97643E-08    0.31515E-10  3072   0.242E-05
  15 F= -.13490510E+04 E0= -.13490510E+04  d E =-.105996E-03  mag=     0.0000
       N       E                     dE             d eps       ncg     rms          rms(c)
DAV:   1    -0.133004477908E+04    0.11784E-02   -0.75007E-02  4608   0.166E-01    0.939E-02
DAV:   2    -0.133004473987E+04    0.39212E-04   -0.66996E-04  4992   0.156E-02    0.563E-02
DAV:   3    -0.133004472939E+04    0.10476E-04   -0.34679E-04  5472   0.108E-02    0.181E-02
DAV:   4    -0.133004472278E+04    0.66163E-05   -0.40094E-05  5216   0.372E-03    0.116E-02
DAV:   5    -0.133004472242E+04    0.35304E-06   -0.17729E-05  4992   0.237E-03    0.221E-03
DAV:   6    -0.133004472303E+04   -0.60882E-06   -0.95234E-07  4992   0.709E-04    0.102E-03
DAV:   7    -0.133004472377E+04   -0.73980E-06   -0.22280E-07  4880   0.292E-04    0.658E-04
DAV:   8    -0.133004472471E+04   -0.93406E-06   -0.73176E-08  4288   0.174E-04    0.234E-04
DAV:   9    -0.133004472536E+04   -0.64900E-06   -0.26730E-08  3840   0.122E-04    0.163E-04
DAV:  10    -0.133004472616E+04   -0.80517E-06   -0.38751E-08  4160   0.112E-04    0.122E-04
DAV:  11    -0.133004472660E+04   -0.43405E-06   -0.15411E-08  3712   0.943E-05    0.683E-05
DAV:  12    -0.133004472688E+04   -0.28197E-06   -0.10342E-08  3744   0.883E-05    0.608E-05
DAV:  13    -0.133004472703E+04   -0.15201E-06   -0.38063E-09  3312   0.762E-05    0.453E-05
DAV:  14    -0.133004472718E+04   -0.14791E-06   -0.57830E-09  3488   0.728E-05    0.302E-05
DAV:  15    -0.133004472721E+04   -0.33921E-07   -0.68181E-10  3072   0.513E-05    0.227E-05
DAV:  16    -0.133004472724E+04   -0.33848E-07   -0.33216E-10  3072   0.399E-05    0.198E-05
DAV:  17    -0.133004472727E+04   -0.24447E-07    0.14196E-10  3072   0.339E-05    0.185E-05
DAV:  18    -0.133004472728E+04   -0.99826E-08    0.45461E-10  3072   0.222E-05
  16 F= -.13490498E+04 E0= -.13490498E+04  d E =0.123261E-02  mag=     0.0000
       N       E                     dE             d eps       ncg     rms          rms(c)
DAV:   1    -0.133004614648E+04   -0.14192E-02   -0.68620E-02  5056   0.193E-01    0.100E-01
DAV:   2    -0.133004611262E+04    0.33865E-04   -0.15571E-03  5856   0.331E-02    0.606E-02
DAV:   3    -0.133004607492E+04    0.37699E-04   -0.39005E-04  5920   0.179E-02    0.245E-02
DAV:   4    -0.133004607148E+04    0.34358E-05   -0.36436E-05  6048   0.582E-03    0.124E-02
DAV:   5    -0.133004606937E+04    0.21101E-05   -0.15520E-05  6208   0.374E-03    0.386E-03
DAV:   6    -0.133004606969E+04   -0.31784E-06   -0.27633E-06  6496   0.201E-03    0.163E-03
DAV:   7    -0.133004606998E+04   -0.28852E-06   -0.32400E-07  5936   0.684E-04    0.988E-04
DAV:   8    -0.133004607086E+04   -0.88236E-06   -0.27696E-07  5824   0.716E-04    0.745E-04
DAV:   9    -0.133004607153E+04   -0.66425E-06   -0.90168E-08  5088   0.448E-04    0.382E-04
DAV:  10    -0.133004607247E+04   -0.94871E-06   -0.79488E-08  4512   0.393E-04    0.320E-04
DAV:  11    -0.133004607334E+04   -0.86635E-06   -0.58535E-08  4224   0.284E-04    0.255E-04
DAV:  12    -0.133004607378E+04   -0.43632E-06   -0.25195E-08  4032   0.177E-04    0.126E-04
DAV:  13    -0.133004607411E+04   -0.33714E-06   -0.81161E-09  3488   0.853E-05    0.860E-05
DAV:  14    -0.133004607445E+04   -0.33737E-06   -0.12306E-08  3616   0.802E-05    0.775E-05
DAV:  15    -0.133004607462E+04   -0.16995E-06   -0.46482E-09  3376   0.823E-05    0.358E-05
DAV:  16    -0.133004607473E+04   -0.10831E-06   -0.30121E-09  3200   0.644E-05    0.432E-05
DAV:  17    -0.133004607478E+04   -0.45970E-07   -0.70177E-10  3072   0.490E-05    0.278E-05
DAV:  18    -0.133004607483E+04   -0.54759E-07   -0.13584E-09  3136   0.541E-05    0.231E-05
DAV:  19    -0.133004607485E+04   -0.15716E-07    0.54137E-12  3072   0.356E-05    0.203E-05
DAV:  20    -0.133004607486E+04   -0.13606E-07    0.44170E-10  3072   0.246E-05    0.899E-06
DAV:  21    -0.133004607487E+04   -0.71450E-08    0.54198E-10  3072   0.170E-05
  17 F= -.13490513E+04 E0= -.13490513E+04  d E =-.154909E-02  mag=     0.0000
       N       E                     dE             d eps       ncg     rms          rms(c)
DAV:   1    -0.133004559430E+04    0.48056E-03   -0.53544E-02  5168   0.160E-01    0.435E-02
DAV:   2    -0.133004563549E+04   -0.41195E-04   -0.50975E-04  5856   0.198E-02    0.269E-02
DAV:   3    -0.133004563724E+04   -0.17441E-05   -0.36156E-05  6208   0.797E-03    0.133E-02
DAV:   4    -0.133004563859E+04   -0.13558E-05   -0.11472E-05  5600   0.429E-03    0.464E-03
DAV:   5    -0.133004563851E+04    0.79977E-07   -0.51694E-06  6528   0.269E-03    0.232E-03
DAV:   6    -0.133004563853E+04   -0.19747E-07   -0.54897E-07  6176   0.103E-03    0.124E-03
DAV:   7    -0.133004563868E+04   -0.14481E-06   -0.16856E-07  5664   0.649E-04    0.577E-04
DAV:   8    -0.133004563891E+04   -0.23448E-06   -0.58276E-08  4704   0.405E-04    0.332E-04
DAV:   9    -0.133004563927E+04   -0.35382E-06   -0.36277E-08  4192   0.319E-04    0.200E-04
DAV:  10    -0.133004563961E+04   -0.33839E-06   -0.27601E-08  3920   0.249E-04    0.137E-04
DAV:  11    -0.133004563992E+04   -0.31394E-06   -0.18571E-08  3712   0.193E-04    0.859E-05
DAV:  12    -0.133004564015E+04   -0.22864E-06   -0.10906E-08  3520   0.114E-04    0.597E-05
DAV:  13    -0.133004564030E+04   -0.15549E-06   -0.49546E-09  3232   0.688E-05    0.348E-05
DAV:  14    -0.133004564040E+04   -0.94544E-07   -0.29118E-09  3200   0.511E-05    0.240E-05
DAV:  15    -0.133004564045E+04   -0.56214E-07   -0.18488E-09  3136   0.465E-05    0.157E-05
DAV:  16    -0.133004564048E+04   -0.29162E-07   -0.10653E-09  3072   0.425E-05    0.124E-05
DAV:  17    -0.133004564049E+04   -0.67521E-08   -0.11653E-10  3072   0.302E-05
  18 F= -.13490508E+04 E0= -.13490508E+04  d E =0.520332E-03  mag=    -0.0000
       N       E                     dE             d eps       ncg     rms          rms(c)
DAV:   1    -0.133004632507E+04   -0.68458E-03   -0.55380E-02  5184   0.168E-01    0.654E-02
DAV:   2    -0.133004633566E+04   -0.10591E-04   -0.14565E-03  6432   0.372E-02    0.416E-02
DAV:   3    -0.133004631789E+04    0.17769E-04   -0.12261E-04  6336   0.140E-02    0.240E-02
DAV:   4    -0.133004630441E+04    0.13477E-04   -0.46714E-05  5568   0.953E-03    0.868E-03
DAV:   5    -0.133004630089E+04    0.35254E-05   -0.15509E-05  6656   0.519E-03    0.467E-03
DAV:   6    -0.133004630004E+04    0.84408E-06   -0.31926E-06  6240   0.223E-03    0.303E-03
DAV:   7    -0.133004629960E+04    0.44463E-06   -0.84374E-07  5856   0.170E-03    0.144E-03
DAV:   8    -0.133004630042E+04   -0.82084E-06   -0.50832E-07  6272   0.126E-03    0.975E-04
DAV:   9    -0.133004630200E+04   -0.15776E-05   -0.29920E-07  5760   0.933E-04    0.516E-04
DAV:  10    -0.133004630355E+04   -0.15487E-05   -0.16881E-07  5376   0.618E-04    0.454E-04
DAV:  11    -0.133004630519E+04   -0.16438E-05   -0.77887E-08  4448   0.432E-04    0.256E-04
DAV:  12    -0.133004630666E+04   -0.14758E-05   -0.77489E-08  4416   0.322E-04    0.184E-04
DAV:  13    -0.133004630753E+04   -0.86403E-06   -0.32205E-08  3680   0.187E-04    0.961E-05
DAV:  14    -0.133004630809E+04   -0.55661E-06   -0.11862E-08  3392   0.933E-05    0.662E-05
DAV:  15    -0.133004630852E+04   -0.43235E-06   -0.12337E-08  3584   0.957E-05    0.408E-05
DAV:  16    -0.133004630870E+04   -0.17890E-06   -0.50987E-09  3296   0.908E-05    0.337E-05
DAV:  17    -0.133004630878E+04   -0.84532E-07   -0.35284E-09  3168   0.889E-05    0.235E-05
DAV:  18    -0.133004630881E+04   -0.29017E-07   -0.14908E-09  3072   0.630E-05    0.152E-05
DAV:  19    -0.133004630883E+04   -0.15323E-07   -0.19694E-10  3072   0.362E-05    0.149E-05
DAV:  20    -0.133004630883E+04   -0.57626E-08    0.33234E-10  3072   0.253E-05
  19 F= -.13490507E+04 E0= -.13490507E+04  d E =0.749694E-04  mag=    -0.0000
       N       E                     dE             d eps       ncg     rms          rms(c)
DAV:   1    -0.133004507810E+04    0.12307E-02   -0.68992E-02  5216   0.195E-01    0.102E-01
DAV:   2    -0.133004507514E+04    0.29533E-05   -0.21045E-03  5952   0.415E-02    0.656E-02
DAV:   3    -0.133004502337E+04    0.51771E-04   -0.35175E-04  5824   0.213E-02    0.310E-02
DAV:   4    -0.133004501073E+04    0.12639E-04   -0.54426E-05  5792   0.898E-03    0.126E-02
DAV:   5    -0.133004500582E+04    0.49120E-05   -0.25001E-05  6176   0.570E-03    0.522E-03
DAV:   6    -0.133004500520E+04    0.62559E-06   -0.44806E-06  6240   0.256E-03    0.242E-03
DAV:   7    -0.133004500553E+04   -0.33222E-06   -0.75740E-07  5952   0.123E-03    0.144E-03
DAV:   8    -0.133004500683E+04   -0.13049E-05   -0.38786E-07  6208   0.103E-03    0.826E-04
DAV:   9    -0.133004500840E+04   -0.15691E-05   -0.23254E-07  5536   0.953E-04    0.488E-04
DAV:  10    -0.133004501024E+04   -0.18338E-05   -0.23274E-07  5056   0.701E-04    0.398E-04
DAV:  11    -0.133004501172E+04   -0.14784E-05   -0.84106E-08  4896   0.377E-04    0.250E-04
DAV:  12    -0.133004501293E+04   -0.12176E-05   -0.57437E-08  4064   0.259E-04    0.169E-04
DAV:  13    -0.133004501376E+04   -0.83010E-06   -0.33995E-08  3744   0.157E-04    0.130E-04
DAV:  14    -0.133004501421E+04   -0.45147E-06   -0.11901E-08  3552   0.958E-05    0.711E-05
DAV:  15    -0.133004501465E+04   -0.43285E-06   -0.13110E-08  3648   0.838E-05    0.596E-05
DAV:  16    -0.133004501486E+04   -0.21585E-06   -0.52175E-09  3264   0.663E-05    0.402E-05
DAV:  17    -0.133004501499E+04   -0.12759E-06   -0.35209E-09  3296   0.692E-05    0.254E-05
DAV:  18    -0.133004501504E+04   -0.53114E-07   -0.11740E-09  3072   0.523E-05    0.291E-05
DAV:  19    -0.133004501506E+04   -0.18816E-07   -0.12819E-10  3072   0.316E-05    0.157E-05
DAV:  20    -0.133004501508E+04   -0.20344E-07    0.21275E-10  3072   0.287E-05    0.117E-05
DAV:  21    -0.133004501509E+04   -0.52387E-08    0.52696E-10  3072   0.196E-05
  20 F= -.13490501E+04 E0= -.13490501E+04  d E =0.615389E-03  mag=    -0.0000
       N       E                     dE             d eps       ncg     rms          rms(c)
DAV:   1    -0.133004577850E+04   -0.76341E-03   -0.85940E-02  4704   0.164E-01    0.144E-01
DAV:   2    -0.133004555255E+04    0.22595E-03   -0.17948E-03  5280   0.269E-02    0.821E-02
DAV:   3    -0.133004549912E+04    0.53425E-04   -0.11416E-03  5344   0.185E-02    0.321E-02
DAV:   4    -0.133004547777E+04    0.21350E-04   -0.10584E-04  5280   0.600E-03    0.206E-02
DAV:   5    -0.133004547514E+04    0.26284E-05   -0.40475E-05  5888   0.387E-03    0.397E-03
DAV:   6    -0.133004547504E+04    0.99360E-07   -0.32486E-06  5088   0.124E-03    0.138E-03
DAV:   7    -0.133004547525E+04   -0.20790E-06   -0.53947E-07  5472   0.487E-04    0.120E-03
DAV:   8    -0.133004547541E+04   -0.15614E-06   -0.55043E-08  3712   0.246E-04    0.495E-04
DAV:   9    -0.133004547560E+04   -0.19789E-06   -0.51579E-08  3872   0.209E-04    0.243E-04
DAV:  10    -0.133004547577E+04   -0.16391E-06   -0.83650E-09  3584   0.107E-04    0.123E-04
DAV:  11    -0.133004547594E+04   -0.16860E-06   -0.72790E-09  3584   0.936E-05    0.699E-05
DAV:  12    -0.133004547606E+04   -0.12596E-06   -0.47193E-09  3488   0.785E-05    0.496E-05
DAV:  13    -0.133004547616E+04   -0.92885E-07   -0.29734E-09  3296   0.586E-05    0.394E-05
DAV:  14    -0.133004547622E+04   -0.65818E-07   -0.21439E-09  3200   0.522E-05    0.221E-05
DAV:  15    -0.133004547627E+04   -0.44733E-07   -0.16106E-09  3232   0.480E-05    0.194E-05
DAV:  16    -0.133004547628E+04   -0.15920E-07   -0.34440E-10  2944   0.326E-05    0.144E-05
DAV:  17    -0.133004547631E+04   -0.23399E-07   -0.13421E-10  3008   0.308E-05    0.133E-05
DAV:  18    -0.133004547631E+04   -0.80181E-08    0.39021E-10  2944   0.223E-05
  21 F= -.13490506E+04 E0= -.13490506E+04  d E =-.438149E-03  mag=     0.0000
       N       E                     dE             d eps       ncg     rms          rms(c)
DAV:   1    -0.133004609236E+04   -0.61605E-03   -0.76040E-02  4576   0.158E-01    0.984E-02
DAV:   2    -0.133004604228E+04    0.50074E-04   -0.70418E-04  5120   0.158E-02    0.585E-02
DAV:   3    -0.133004603095E+04    0.11333E-04   -0.39464E-04  5344   0.111E-02    0.187E-02
DAV:   4    -0.133004602299E+04    0.79624E-05   -0.38511E-05  4960   0.377E-03    0.120E-02
DAV:   5    -0.133004602187E+04    0.11126E-05   -0.20469E-05  4928   0.273E-03    0.205E-03
DAV:   6    -0.133004602210E+04   -0.22893E-06   -0.10877E-06  4992   0.760E-04    0.110E-03
DAV:   7    -0.133004602239E+04   -0.28436E-06   -0.26756E-07  4608   0.328E-04    0.804E-04
DAV:   8    -0.133004602271E+04   -0.31783E-06   -0.49064E-08  3616   0.172E-04    0.319E-04
DAV:   9    -0.133004602307E+04   -0.36065E-06   -0.27940E-08  3680   0.121E-04    0.191E-04
DAV:  10    -0.133004602356E+04   -0.49586E-06   -0.22805E-08  3616   0.119E-04    0.137E-04
DAV:  11    -0.133004602379E+04   -0.22729E-06   -0.85154E-09  3584   0.864E-05    0.757E-05
DAV:  12    -0.133004602402E+04   -0.22766E-06   -0.79953E-09  3456   0.818E-05    0.648E-05
DAV:  13    -0.133004602411E+04   -0.93351E-07   -0.24914E-09  3200   0.682E-05    0.532E-05
DAV:  14    -0.133004602421E+04   -0.96537E-07   -0.33676E-09  3328   0.675E-05    0.243E-05
DAV:  15    -0.133004602425E+04   -0.45402E-07   -0.14160E-09  3168   0.546E-05    0.231E-05
DAV:  16    -0.133004602428E+04   -0.24083E-07   -0.13628E-10  3072   0.322E-05    0.180E-05
DAV:  17    -0.133004602429E+04   -0.18437E-07    0.62217E-11  3072   0.289E-05    0.119E-05
DAV:  18    -0.133004602430E+04   -0.41618E-08    0.49955E-10  2944   0.190E-05
  22 F= -.13490509E+04 E0= -.13490509E+04  d E =-.329687E-03  mag=     0.0000
       N       E                     dE             d eps       ncg     rms          rms(c)
DAV:   1    -0.133004539637E+04    0.62792E-03   -0.76001E-02  4992   0.168E-01    0.100E-01
DAV:   2    -0.133004535418E+04    0.42194E-04   -0.83761E-04  5344   0.181E-02    0.599E-02
DAV:   3    -0.133004534464E+04    0.95391E-05   -0.46168E-04  5536   0.127E-02    0.221E-02
DAV:   4    -0.133004533408E+04    0.10559E-04   -0.47227E-05  5408   0.420E-03    0.143E-02
DAV:   5    -0.133004533259E+04    0.14867E-05   -0.22089E-05  5184   0.278E-03    0.275E-03
DAV:   6    -0.133004533281E+04   -0.22036E-06   -0.17944E-06  5536   0.956E-04    0.963E-04
DAV:   7    -0.133004533306E+04   -0.24613E-06   -0.14242E-07  4288   0.282E-04    0.849E-04
DAV:   8    -0.133004533340E+04   -0.34021E-06   -0.33151E-08  3840   0.208E-04    0.315E-04
DAV:   9    -0.133004533362E+04   -0.22173E-06   -0.27995E-08  3808   0.162E-04    0.204E-04
DAV:  10    -0.133004533378E+04   -0.16126E-06   -0.61772E-09  3584   0.963E-05    0.119E-04
DAV:  11    -0.133004533392E+04   -0.14313E-06   -0.31943E-09  3392   0.800E-05    0.749E-05
DAV:  12    -0.133004533410E+04   -0.17647E-06   -0.71910E-09  3616   0.101E-04    0.560E-05
DAV:  13    -0.133004533415E+04   -0.53406E-07   -0.16825E-09  3168   0.680E-05    0.600E-05
DAV:  14    -0.133004533421E+04   -0.53231E-07   -0.14158E-09  3136   0.582E-05    0.375E-05
DAV:  15    -0.133004533426E+04   -0.52736E-07   -0.14486E-09  3104   0.561E-05    0.307E-05
DAV:  16    -0.133004533428E+04   -0.16997E-07   -0.19977E-10  3072   0.374E-05    0.227E-05
DAV:  17    -0.133004533429E+04   -0.17200E-07    0.51300E-11  3072   0.335E-05    0.242E-05
DAV:  18    -0.133004533430E+04   -0.90804E-08    0.42739E-10  3072   0.212E-05
  23 F= -.13490504E+04 E0= -.13490504E+04  d E =0.466476E-03  mag=     0.0000
       N       E                     dE             d eps       ncg     rms          rms(c)
DAV:   1    -0.133004592317E+04   -0.58888E-03   -0.73443E-02  4992   0.162E-01    0.852E-02
DAV:   2    -0.133004591950E+04    0.36682E-05   -0.53918E-04  5344   0.138E-02    0.503E-02
DAV:   3    -0.133004591272E+04    0.67801E-05   -0.17099E-04  5664   0.801E-03    0.122E-02
DAV:   4    -0.133004590982E+04    0.29002E-05   -0.17954E-05  5216   0.252E-03    0.765E-03
DAV:   5    -0.133004590923E+04    0.59820E-06   -0.10438E-05  4992   0.184E-03    0.167E-03
DAV:   6    -0.133004590933E+04   -0.10538E-06   -0.71306E-07  4736   0.642E-04    0.890E-04
DAV:   7    -0.133004590944E+04   -0.11263E-06   -0.81939E-08  4064   0.248E-04    0.429E-04
DAV:   8    -0.133004590964E+04   -0.19200E-06   -0.30810E-08  3776   0.169E-04    0.198E-04
DAV:   9    -0.133004590980E+04   -0.16822E-06   -0.14685E-08  3840   0.141E-04    0.121E-04
DAV:  10    -0.133004590998E+04   -0.17101E-06   -0.67138E-09  3392   0.968E-05    0.745E-05
DAV:  11    -0.133004591010E+04   -0.12467E-06   -0.57959E-09  3584   0.761E-05    0.443E-05
DAV:  12    -0.133004591019E+04   -0.87850E-07   -0.28964E-09  3328   0.615E-05    0.291E-05
DAV:  13    -0.133004591025E+04   -0.64203E-07   -0.22302E-09  3168   0.556E-05    0.227E-05
DAV:  14    -0.133004591030E+04   -0.47672E-07   -0.20108E-09  3168   0.613E-05    0.150E-05
DAV:  15    -0.133004591032E+04   -0.20489E-07   -0.64080E-10  3072   0.459E-05    0.103E-05
DAV:  16    -0.133004591033E+04   -0.11409E-07    0.23365E-10  3072   0.230E-05    0.839E-06
DAV:  17    -0.133004591034E+04   -0.12107E-07    0.40334E-10  3072   0.200E-05    0.653E-06
DAV:  18    -0.133004591035E+04   -0.31723E-08    0.55734E-10  2944   0.141E-05
  24 F= -.13490509E+04 E0= -.13490509E+04  d E =-.501140E-03  mag=     0.0000
       N       E                     dE             d eps       ncg     rms          rms(c)
DAV:   1    -0.133004542759E+04    0.48275E-03   -0.79379E-02  5088   0.167E-01    0.115E-01
DAV:   2    -0.133004531871E+04    0.10888E-03   -0.97781E-04  5312   0.197E-02    0.666E-02
DAV:   3    -0.133004529133E+04    0.27379E-04   -0.63344E-04  5376   0.147E-02    0.239E-02
DAV:   4    -0.133004527925E+04    0.12081E-04   -0.60664E-05  5344   0.473E-03    0.154E-02
DAV:   5    -0.133004527717E+04    0.20849E-05   -0.26250E-05  5024   0.304E-03    0.306E-03
DAV:   6    -0.133004527711E+04    0.55006E-07   -0.19866E-06  5280   0.105E-03    0.127E-03
DAV:   7    -0.133004527714E+04   -0.25044E-07   -0.28991E-07  5056   0.328E-04    0.985E-04
DAV:   8    -0.133004527723E+04   -0.98546E-07   -0.42483E-08  3680   0.200E-04    0.376E-04
DAV:   9    -0.133004527735E+04   -0.11403E-06   -0.37283E-08  3808   0.173E-04    0.218E-04
DAV:  10    -0.133004527748E+04   -0.13452E-06   -0.92146E-09  3488   0.103E-04    0.122E-04
DAV:  11    -0.133004527759E+04   -0.11083E-06   -0.41975E-09  3360   0.777E-05    0.709E-05
DAV:  12    -0.133004527772E+04   -0.12337E-06   -0.64695E-09  3520   0.823E-05    0.542E-05
DAV:  13    -0.133004527778E+04   -0.64974E-07   -0.18518E-09  3168   0.550E-05    0.516E-05
DAV:  14    -0.133004527786E+04   -0.78828E-07   -0.34333E-09  3328   0.626E-05    0.459E-05
DAV:  15    -0.133004527789E+04   -0.29133E-07   -0.13559E-09  3136   0.565E-05    0.342E-05
DAV:  16    -0.133004527791E+04   -0.18321E-07   -0.47071E-10  3072   0.424E-05    0.242E-05
DAV:  17    -0.133004527793E+04   -0.18917E-07   -0.16213E-10  3136   0.333E-05    0.276E-05
DAV:  18    -0.133004527794E+04   -0.81054E-08    0.40254E-10  3072   0.200E-05
  25 F= -.13490501E+04 E0= -.13490501E+04  d E =0.812551E-03  mag=    -0.0000
       N       E                     dE             d eps       ncg     rms          rms(c)
DAV:   1    -0.133004570900E+04   -0.43108E-03   -0.79124E-02  5056   0.167E-01    0.112E-01
DAV:   2    -0.133004563935E+04    0.69651E-04   -0.12495E-03  5376   0.213E-02    0.675E-02
DAV:   3    -0.133004561349E+04    0.25865E-04   -0.63842E-04  5472   0.143E-02    0.253E-02
DAV:   4    -0.133004559872E+04    0.14765E-04   -0.74184E-05  5440   0.484E-03    0.149E-02
DAV:   5    -0.133004559621E+04    0.25142E-05   -0.25664E-05  5248   0.289E-03    0.273E-03
DAV:   6    -0.133004559632E+04   -0.11294E-06   -0.17782E-06  5376   0.938E-04    0.123E-03
DAV:   7    -0.133004559652E+04   -0.19399E-06   -0.32181E-07  4800   0.390E-04    0.869E-04
DAV:   8    -0.133004559692E+04   -0.39925E-06   -0.61181E-08  3936   0.255E-04    0.360E-04
DAV:   9    -0.133004559742E+04   -0.50290E-06   -0.54085E-08  4064   0.222E-04    0.301E-04
DAV:  10    -0.133004559800E+04   -0.58432E-06   -0.26220E-08  3712   0.159E-04    0.151E-04
DAV:  11    -0.133004559844E+04   -0.43288E-06   -0.15454E-08  3584   0.115E-04    0.104E-04
DAV:  12    -0.133004559876E+04   -0.31991E-06   -0.11068E-08  3552   0.931E-05    0.856E-05
DAV:  13    -0.133004559898E+04   -0.22084E-06   -0.67352E-09  3424   0.798E-05    0.440E-05
DAV:  14    -0.133004559916E+04   -0.18413E-06   -0.76647E-09  3552   0.904E-05    0.420E-05
DAV:  15    -0.133004559921E+04   -0.49578E-07   -0.26815E-09  3136   0.784E-05    0.330E-05
DAV:  16    -0.133004559925E+04   -0.38475E-07   -0.90873E-10  3072   0.432E-05    0.133E-05
DAV:  17    -0.133004559927E+04   -0.26324E-07   -0.41815E-10  3136   0.329E-05    0.160E-05
DAV:  18    -0.133004559928E+04   -0.70431E-08    0.35166E-10  3072   0.227E-05
  26 F= -.13490506E+04 E0= -.13490506E+04  d E =-.526694E-03  mag=     0.0000
       N       E                     dE             d eps       ncg     rms          rms(c)
DAV:   1    -0.133004584427E+04   -0.24500E-03   -0.74528E-02  4960   0.151E-01    0.880E-02
DAV:   2    -0.133004583010E+04    0.14168E-04   -0.55842E-04  5312   0.133E-02    0.519E-02
DAV:   3    -0.133004582969E+04    0.41325E-06   -0.15888E-04  5760   0.797E-03    0.109E-02
DAV:   4    -0.133004582727E+04    0.24175E-05   -0.19167E-05  5536   0.287E-03    0.582E-03
DAV:   5    -0.133004582758E+04   -0.31068E-06   -0.70742E-06  5248   0.177E-03    0.167E-03
DAV:   6    -0.133004582785E+04   -0.27139E-06   -0.65577E-07  5136   0.666E-04    0.899E-04
DAV:   7    -0.133004582834E+04   -0.48782E-06   -0.98834E-08  4320   0.301E-04    0.410E-04
DAV:   8    -0.133004582881E+04   -0.46604E-06   -0.40346E-08  4000   0.208E-04    0.210E-04
DAV:   9    -0.133004582928E+04   -0.47621E-06   -0.21934E-08  3744   0.146E-04    0.141E-04
DAV:  10    -0.133004582971E+04   -0.42323E-06   -0.17051E-08  3648   0.135E-04    0.781E-05
DAV:  11    -0.133004583000E+04   -0.28814E-06   -0.12123E-08  3584   0.111E-04    0.597E-05
DAV:  12    -0.133004583017E+04   -0.17122E-06   -0.60168E-09  3424   0.892E-05    0.418E-05
DAV:  13    -0.133004583031E+04   -0.13846E-06   -0.52943E-09  3392   0.745E-05    0.235E-05
DAV:  14    -0.133004583037E+04   -0.65498E-07   -0.21443E-09  3136   0.587E-05    0.163E-05
DAV:  15    -0.133004583041E+04   -0.39421E-07   -0.94844E-10  3072   0.427E-05    0.119E-05
DAV:  16    -0.133004583044E+04   -0.30457E-07   -0.56298E-10  3136   0.336E-05    0.958E-06
DAV:  17    -0.133004583045E+04   -0.99826E-08    0.28446E-10  3072   0.224E-05
  27 F= -.13490509E+04 E0= -.13490509E+04  d E =-.255054E-03  mag=     0.0000
       N       E                     dE             d eps       ncg     rms          rms(c)
DAV:   1    -0.133004550583E+04    0.32461E-03   -0.79584E-02  4928   0.153E-01    0.116E-01
DAV:   2    -0.133004539231E+04    0.11352E-03   -0.10224E-03  5440   0.183E-02    0.660E-02
DAV:   3    -0.133004537019E+04    0.22120E-04   -0.58769E-04  5376   0.135E-02    0.231E-02
DAV:   4    -0.133004535856E+04    0.11627E-04   -0.58447E-05  5248   0.464E-03    0.144E-02
DAV:   5    -0.133004535739E+04    0.11704E-05   -0.24555E-05  5216   0.309E-03    0.256E-03
DAV:   6    -0.133004535768E+04   -0.28890E-06   -0.17398E-06  5472   0.105E-03    0.122E-03
DAV:   7    -0.133004535807E+04   -0.39220E-06   -0.21729E-07  4960   0.323E-04    0.948E-04
DAV:   8    -0.133004535860E+04   -0.53046E-06   -0.79738E-08  3776   0.225E-04    0.303E-04
DAV:   9    -0.133004535899E+04   -0.39225E-06   -0.27754E-08  3904   0.137E-04    0.233E-04
DAV:  10    -0.133004535938E+04   -0.38776E-06   -0.14428E-08  3584   0.102E-04    0.131E-04
DAV:  11    -0.133004535976E+04   -0.38180E-06   -0.17128E-08  3840   0.105E-04    0.804E-05
DAV:  12    -0.133004535999E+04   -0.22953E-06   -0.94536E-09  3552   0.866E-05    0.660E-05
DAV:  13    -0.133004536015E+04   -0.15345E-06   -0.45652E-09  3392   0.672E-05    0.467E-05
DAV:  14    -0.133004536028E+04   -0.13325E-06   -0.49955E-09  3456   0.623E-05    0.307E-05
DAV:  15    -0.133004536034E+04   -0.66080E-07   -0.20713E-09  3264   0.554E-05    0.235E-05
DAV:  16    -0.133004536038E+04   -0.30952E-07   -0.75467E-10  3104   0.461E-05    0.173E-05
DAV:  17    -0.133004536040E+04   -0.28769E-07   -0.50099E-10  3136   0.351E-05    0.132E-05
DAV:  18    -0.133004536042E+04   -0.13039E-07    0.22615E-10  3072   0.236E-05    0.111E-05
DAV:  19    -0.133004536042E+04   -0.72177E-08    0.50214E-10  2944   0.157E-05
  28 F= -.13490504E+04 E0= -.13490504E+04  d E =0.517658E-03  mag=    -0.0000
       N       E                     dE             d eps       ncg     rms          rms(c)
DAV:   1    -0.133004577391E+04   -0.41350E-03   -0.80070E-02  4992   0.164E-01    0.115E-01
DAV:   2    -0.133004566757E+04    0.10635E-03   -0.13438E-03  5376   0.233E-02    0.668E-02
DAV:   3    -0.133004565282E+04    0.14750E-04   -0.90037E-04  5312   0.165E-02    0.298E-02
DAV:   4    -0.133004563335E+04    0.19470E-04   -0.78521E-05  5152   0.543E-03    0.190E-02
DAV:   5    -0.133004562989E+04    0.34541E-05   -0.34952E-05  5472   0.389E-03    0.366E-03
DAV:   6    -0.133004562978E+04    0.11182E-06   -0.41441E-06  5600   0.141E-03    0.139E-03
DAV:   7    -0.133004562981E+04   -0.29133E-07   -0.29471E-07  4800   0.398E-04    0.122E-03
DAV:   8    -0.133004562991E+04   -0.97556E-07   -0.53878E-08  3840   0.208E-04    0.485E-04
DAV:   9    -0.133004563005E+04   -0.14072E-06   -0.45936E-08  3680   0.154E-04    0.268E-04
DAV:  10    -0.133004563023E+04   -0.18036E-06   -0.83891E-09  3552   0.980E-05    0.162E-04
DAV:  11    -0.133004563047E+04   -0.24095E-06   -0.90732E-09  3456   0.833E-05    0.848E-05
DAV:  12    -0.133004563069E+04   -0.21780E-06   -0.14230E-08  3584   0.975E-05    0.624E-05
DAV:  13    -0.133004563082E+04   -0.13331E-06   -0.67232E-09  3520   0.110E-04    0.589E-05
DAV:  14    -0.133004563092E+04   -0.97672E-07   -0.57296E-09  3456   0.102E-04    0.381E-05
DAV:  15    -0.133004563096E+04   -0.44398E-07   -0.19839E-09  3232   0.636E-05    0.243E-05
DAV:  16    -0.133004563100E+04   -0.32844E-07   -0.71819E-10  3072   0.418E-05    0.186E-05
DAV:  17    -0.133004563101E+04   -0.19529E-07   -0.36666E-11  3072   0.285E-05    0.181E-05
DAV:  18    -0.133004563102E+04   -0.83819E-08    0.40070E-10  2944   0.185E-05
  29 F= -.13490507E+04 E0= -.13490507E+04  d E =-.302921E-03  mag=     0.0000
       N       E                     dE             d eps       ncg     rms          rms(c)
DAV:   1    -0.133004566940E+04   -0.38383E-04   -0.73777E-02  5088   0.147E-01    0.843E-02
DAV:   2    -0.133004567199E+04   -0.25886E-05   -0.53779E-04  5536   0.137E-02    0.496E-02
DAV:   3    -0.133004566600E+04    0.59833E-05   -0.13012E-04  5712   0.709E-03    0.982E-03
DAV:   4    -0.133004566443E+04    0.15718E-05   -0.14205E-05  5568   0.250E-03    0.532E-03
DAV:   5    -0.133004566411E+04    0.32103E-06   -0.58652E-06  5344   0.156E-03    0.154E-03
DAV:   6    -0.133004566415E+04   -0.38941E-07   -0.56908E-07  5024   0.572E-04    0.813E-04
DAV:   7    -0.133004566425E+04   -0.10506E-06   -0.74274E-08  3968   0.221E-04    0.276E-04
DAV:   8    -0.133004566438E+04   -0.12595E-06   -0.17216E-08  3744   0.109E-04    0.155E-04
DAV:   9    -0.133004566453E+04   -0.14924E-06   -0.49955E-09  3488   0.791E-05    0.941E-05
DAV:  10    -0.133004566469E+04   -0.15600E-06   -0.49334E-09  3456   0.643E-05    0.523E-05
DAV:  11    -0.133004566481E+04   -0.12902E-06   -0.41538E-09  3456   0.620E-05    0.414E-05
DAV:  12    -0.133004566491E+04   -0.90920E-07   -0.27259E-09  3232   0.634E-05    0.297E-05
DAV:  13    -0.133004566499E+04   -0.82146E-07   -0.34299E-09  3392   0.665E-05    0.214E-05
DAV:  14    -0.133004566502E+04   -0.28376E-07   -0.71219E-10  3072   0.444E-05    0.181E-05
DAV:  15    -0.133004566504E+04   -0.20082E-07    0.54259E-11  3072   0.279E-05    0.104E-05
DAV:  16    -0.133004566505E+04   -0.13810E-07    0.33917E-10  3072   0.215E-05    0.108E-05
DAV:  17    -0.133004566506E+04   -0.56898E-08    0.53435E-10  2912   0.148E-05
  30 F= -.13490508E+04 E0= -.13490508E+04  d E =-.168724E-03  mag=    -0.0000
       N       E                     dE             d eps       ncg     rms          rms(c)
DAV:   1    -0.133004532676E+04    0.33829E-03   -0.75921E-02  5152   0.148E-01    0.984E-02
DAV:   2    -0.133004528151E+04    0.45244E-04   -0.64901E-04  5376   0.154E-02    0.570E-02
DAV:   3    -0.133004527405E+04    0.74638E-05   -0.32364E-04  5760   0.103E-02    0.173E-02
DAV:   4    -0.133004526776E+04    0.62914E-05   -0.31335E-05  5600   0.339E-03    0.106E-02
DAV:   5    -0.133004526659E+04    0.11647E-05   -0.18116E-05  5232   0.263E-03    0.175E-03
DAV:   6    -0.133004526672E+04   -0.12660E-06   -0.10280E-06  5280   0.862E-04    0.105E-03
DAV:   7    -0.133004526679E+04   -0.65527E-07   -0.11805E-07  4832   0.277E-04    0.542E-04
DAV:   8    -0.133004526692E+04   -0.13081E-06   -0.29767E-08  3616   0.173E-04    0.223E-04
DAV:   9    -0.133004526704E+04   -0.12384E-06   -0.88204E-09  3520   0.101E-04    0.128E-04
DAV:  10    -0.133004526717E+04   -0.13388E-06   -0.57949E-09  3392   0.901E-05    0.818E-05
DAV:  11    -0.133004526729E+04   -0.11585E-06   -0.41664E-09  3360   0.617E-05    0.614E-05
DAV:  12    -0.133004526737E+04   -0.75772E-07   -0.23657E-09  3296   0.588E-05    0.323E-05
DAV:  13    -0.133004526744E+04   -0.77169E-07   -0.34005E-09  3264   0.613E-05    0.372E-05
DAV:  14    -0.133004526746E+04   -0.19965E-07   -0.52019E-10  3072   0.502E-05    0.273E-05
DAV:  15    -0.133004526749E+04   -0.26484E-07   -0.60932E-10  3072   0.459E-05    0.223E-05
DAV:  16    -0.133004526750E+04   -0.12369E-07    0.18649E-10  3072   0.320E-05    0.224E-05
DAV:  17    -0.133004526751E+04   -0.41036E-08    0.62369E-10  3072   0.193E-05
  31 F= -.13490501E+04 E0= -.13490501E+04  d E =0.749425E-03  mag=     0.0000
       N       E                     dE             d eps       ncg     rms          rms(c)
DAV:   1    -0.133004560640E+04   -0.33890E-03   -0.78905E-02  5088   0.164E-01    0.115E-01
DAV:   2    -0.133004553657E+04    0.69834E-04   -0.14021E-03  5440   0.244E-02    0.704E-02
DAV:   3    -0.133004549997E+04    0.36594E-04   -0.74280E-04  5632   0.173E-02    0.249E-02
DAV:   4    -0.133004548759E+04    0.12383E-04   -0.82417E-05  5600   0.670E-03    0.152E-02
DAV:   5    -0.133004548607E+04    0.15168E-05   -0.34376E-05  5376   0.442E-03    0.311E-03
DAV:   6    -0.133004548628E+04   -0.20886E-06   -0.25715E-06  5760   0.153E-03    0.155E-03
DAV:   7    -0.133004548657E+04   -0.29225E-06   -0.35757E-07  5440   0.461E-04    0.738E-04
DAV:   8    -0.133004548682E+04   -0.24948E-06   -0.49608E-08  4192   0.291E-04    0.383E-04
DAV:   9    -0.133004548704E+04   -0.21730E-06   -0.16833E-08  3648   0.147E-04    0.177E-04
DAV:  10    -0.133004548722E+04   -0.17836E-06   -0.10167E-08  3648   0.112E-04    0.109E-04
DAV:  11    -0.133004548737E+04   -0.14786E-06   -0.45942E-09  3488   0.770E-05    0.726E-05
DAV:  12    -0.133004548750E+04   -0.13199E-06   -0.49718E-09  3520   0.767E-05    0.375E-05
DAV:  13    -0.133004548757E+04   -0.68118E-07   -0.15980E-09  3232   0.521E-05    0.359E-05
DAV:  14    -0.133004548762E+04   -0.48007E-07   -0.80859E-10  3136   0.387E-05    0.208E-05
DAV:  15    -0.133004548765E+04   -0.37660E-07   -0.79718E-10  3136   0.422E-05    0.195E-05
DAV:  16    -0.133004548767E+04   -0.12704E-07   -0.55215E-11  3072   0.299E-05    0.197E-05
DAV:  17    -0.133004548768E+04   -0.91823E-08    0.33705E-10  3072   0.216E-05
  32 F= -.13490506E+04 E0= -.13490506E+04  d E =-.513141E-03  mag=     0.0000
       N       E                     dE             d eps       ncg     rms          rms(c)
DAV:   1    -0.133004586861E+04   -0.38094E-03   -0.71512E-02  4992   0.151E-01    0.780E-02
DAV:   2    -0.133004587284E+04   -0.42314E-05   -0.47159E-04  5440   0.129E-02    0.465E-02
DAV:   3    -0.133004587532E+04   -0.24783E-05   -0.10971E-04  5728   0.742E-03    0.900E-03
DAV:   4    -0.133004587418E+04    0.11348E-05   -0.14118E-05  5824   0.286E-03    0.489E-03
DAV:   5    -0.133004587448E+04   -0.29882E-06   -0.44307E-06  5312   0.162E-03    0.159E-03
DAV:   6    -0.133004587482E+04   -0.34001E-06   -0.50006E-07  5936   0.745E-04    0.815E-04
DAV:   7    -0.133004587526E+04   -0.43589E-06   -0.74162E-08  4288   0.223E-04    0.402E-04
DAV:   8    -0.133004587575E+04   -0.49268E-06   -0.34462E-08  3904   0.165E-04    0.198E-04
DAV:   9    -0.133004587621E+04   -0.46518E-06   -0.17159E-08  3552   0.110E-04    0.136E-04
DAV:  10    -0.133004587666E+04   -0.44639E-06   -0.21280E-08  3808   0.107E-04    0.731E-05
DAV:  11    -0.133004587695E+04   -0.28977E-06   -0.12924E-08  3552   0.109E-04    0.639E-05
DAV:  12    -0.133004587711E+04   -0.15579E-06   -0.68116E-09  3424   0.104E-04    0.436E-05
DAV:  13    -0.133004587723E+04   -0.12254E-06   -0.55611E-09  3472   0.888E-05    0.211E-05
DAV:  14    -0.133004587729E+04   -0.63897E-07   -0.23794E-09  3104   0.621E-05    0.182E-05
DAV:  15    -0.133004587732E+04   -0.32553E-07   -0.78233E-10  3072   0.381E-05    0.148E-05
DAV:  16    -0.133004587735E+04   -0.27736E-07   -0.26462E-10  3072   0.304E-05    0.874E-06
DAV:  17    -0.133004587736E+04   -0.11350E-07    0.30268E-10  3072   0.205E-05    0.676E-06
DAV:  18    -0.133004587737E+04   -0.43219E-08    0.55545E-10  2880   0.131E-05
  33 F= -.13490510E+04 E0= -.13490510E+04  d E =-.361670E-03  mag=    -0.0000
       N       E                     dE             d eps       ncg     rms          rms(c)
DAV:   1    -0.133004531004E+04    0.56733E-03   -0.70787E-02  4992   0.151E-01    0.792E-02
DAV:   2    -0.133004531798E+04   -0.79466E-05   -0.50354E-04  5760   0.127E-02    0.470E-02
DAV:   3    -0.133004531952E+04   -0.15402E-05   -0.94439E-05  5920   0.656E-03    0.933E-03
DAV:   4    -0.133004531840E+04    0.11204E-05   -0.11172E-05  5856   0.233E-03    0.439E-03
DAV:   5    -0.133004531873E+04   -0.32585E-06   -0.29407E-06  5952   0.131E-03    0.140E-03
DAV:   6    -0.133004531907E+04   -0.34311E-06   -0.34517E-07  5728   0.590E-04    0.705E-04
DAV:   7    -0.133004531951E+04   -0.43598E-06   -0.58702E-08  3968   0.254E-04    0.332E-04
DAV:   8    -0.133004532000E+04   -0.49527E-06   -0.38966E-08  3984   0.175E-04    0.221E-04
DAV:   9    -0.133004532045E+04   -0.44137E-06   -0.15130E-08  3488   0.113E-04    0.127E-04
DAV:  10    -0.133004532085E+04   -0.40561E-06   -0.16009E-08  3520   0.107E-04    0.814E-05
DAV:  11    -0.133004532116E+04   -0.30588E-06   -0.13883E-08  3584   0.140E-04    0.620E-05
DAV:  12    -0.133004532132E+04   -0.15841E-06   -0.79139E-09  3424   0.126E-04    0.426E-05
DAV:  13    -0.133004532140E+04   -0.80603E-07   -0.25842E-09  3200   0.755E-05    0.246E-05
DAV:  14    -0.133004532149E+04   -0.89698E-07   -0.29314E-09  3232   0.633E-05    0.216E-05
DAV:  15    -0.133004532151E+04   -0.20984E-07   -0.42493E-10  3072   0.446E-05    0.159E-05
DAV:  16    -0.133004532152E+04   -0.15090E-07   -0.30007E-12  3040   0.301E-05    0.198E-05
DAV:  17    -0.133004532153E+04   -0.54861E-08    0.44692E-10  3072   0.207E-05
  34 F= -.13490503E+04 E0= -.13490503E+04  d E =0.660981E-03  mag=     0.0000
       N       E                     dE             d eps       ncg     rms          rms(c)
DAV:   1    -0.133004364338E+04    0.16781E-02   -0.28731E-01  4992   0.365E-01    0.125E-01
DAV:   2    -0.133004362374E+04    0.19638E-04   -0.24662E-03  5600   0.336E-02    0.799E-02
DAV:   3    -0.133004355766E+04    0.66084E-04   -0.71001E-04  5696   0.175E-02    0.219E-02
DAV:   4    -0.133004355552E+04    0.21428E-05   -0.12199E-04  5568   0.569E-03    0.111E-02
DAV:   5    -0.133004355622E+04   -0.70655E-06   -0.16370E-05  6656   0.267E-03    0.372E-03
DAV:   6    -0.133004355633E+04   -0.10912E-06   -0.12897E-06  5632   0.111E-03    0.191E-03
DAV:   7    -0.133004355674E+04   -0.40911E-06   -0.46360E-07  5088   0.541E-04    0.727E-04
DAV:   8    -0.133004355713E+04   -0.39343E-06   -0.11764E-07  4704   0.303E-04    0.361E-04
DAV:   9    -0.133004355758E+04   -0.44855E-06   -0.20889E-08  3632   0.140E-04    0.241E-04
DAV:  10    -0.133004355805E+04   -0.46373E-06   -0.21141E-08  3808   0.127E-04    0.119E-04
DAV:  11    -0.133004355844E+04   -0.39455E-06   -0.18754E-08  3680   0.127E-04    0.909E-05
DAV:  12    -0.133004355865E+04   -0.20899E-06   -0.83497E-09  3552   0.108E-04    0.641E-05
DAV:  13    -0.133004355880E+04   -0.14475E-06   -0.72650E-09  3552   0.102E-04    0.337E-05
DAV:  14    -0.133004355887E+04   -0.70897E-07   -0.32859E-09  3200   0.803E-05    0.245E-05
DAV:  15    -0.133004355891E+04   -0.44223E-07   -0.22746E-09  3200   0.647E-05    0.164E-05
DAV:  16    -0.133004355894E+04   -0.26237E-07   -0.93905E-10  3072   0.461E-05    0.134E-05
DAV:  17    -0.133004355895E+04   -0.17084E-07   -0.12039E-10  3072   0.290E-05    0.827E-06
DAV:  18    -0.133004355896E+04   -0.85274E-08    0.23550E-10  3072   0.242E-05
  35 F= -.13490487E+04 E0= -.13490487E+04  d E =0.162275E-02  mag=    -0.0000
       N       E                     dE             d eps       ncg     rms          rms(c)
DAV:   1    -0.133004421011E+04   -0.65116E-03   -0.49657E-01  4864   0.468E-01    0.142E-01
DAV:   2    -0.133004419334E+04    0.16767E-04   -0.32453E-03  5344   0.362E-02    0.909E-02
DAV:   3    -0.133004406993E+04    0.12342E-03   -0.62736E-04  5504   0.148E-02    0.219E-02
DAV:   4    -0.133004407868E+04   -0.87539E-05   -0.96866E-05  6208   0.431E-03    0.926E-03
DAV:   5    -0.133004407840E+04    0.27787E-06   -0.10598E-05  5472   0.185E-03    0.390E-03
DAV:   6    -0.133004407882E+04   -0.41748E-06   -0.11291E-06  5344   0.764E-04    0.169E-03
DAV:   7    -0.133004407954E+04   -0.72547E-06   -0.36328E-07  4672   0.442E-04    0.472E-04
DAV:   8    -0.133004408009E+04   -0.54280E-06   -0.70627E-08  4192   0.215E-04    0.305E-04
DAV:   9    -0.133004408066E+04   -0.56828E-06   -0.20506E-08  3680   0.124E-04    0.182E-04
DAV:  10    -0.133004408134E+04   -0.68208E-06   -0.35722E-08  4032   0.144E-04    0.106E-04
DAV:  11    -0.133004408165E+04   -0.31409E-06   -0.11250E-08  3648   0.109E-04    0.764E-05
DAV:  12    -0.133004408186E+04   -0.21234E-06   -0.57174E-09  3536   0.786E-05    0.509E-05
DAV:  13    -0.133004408206E+04   -0.19606E-06   -0.55315E-09  3440   0.621E-05    0.282E-05
DAV:  14    -0.133004408217E+04   -0.10959E-06   -0.30795E-09  3152   0.557E-05    0.181E-05
DAV:  15    -0.133004408222E+04   -0.53027E-07   -0.14138E-09  3072   0.498E-05    0.137E-05
DAV:  16    -0.133004408225E+04   -0.31869E-07   -0.79539E-10  3072   0.400E-05    0.861E-06
DAV:  17    -0.133004408227E+04   -0.18961E-07   -0.21154E-10  3072   0.309E-05    0.552E-06
DAV:  18    -0.133004408228E+04   -0.50495E-08    0.35125E-10  3072   0.191E-05
  36 F= -.13490492E+04 E0= -.13490492E+04  d E =-.497611E-03  mag=    -0.0000
       N       E                     dE             d eps       ncg     rms          rms(c)
DAV:   1    -0.133004393706E+04    0.14521E-03   -0.49440E-01  4992   0.466E-01    0.141E-01
DAV:   2    -0.133004398211E+04   -0.45044E-04   -0.38241E-03  5312   0.413E-02    0.907E-02
DAV:   3    -0.133004386028E+04    0.12183E-03   -0.74564E-04  5632   0.166E-02    0.209E-02
DAV:   4    -0.133004387093E+04   -0.10649E-04   -0.12748E-04  5696   0.458E-03    0.997E-03
DAV:   5    -0.133004387053E+04    0.39383E-06   -0.13626E-05  5344   0.228E-03    0.380E-03
DAV:   6    -0.133004387112E+04   -0.58782E-06   -0.14452E-06  5216   0.899E-04    0.166E-03
DAV:   7    -0.133004387178E+04   -0.66294E-06   -0.35697E-07  4704   0.448E-04    0.453E-04
DAV:   8    -0.133004387228E+04   -0.50080E-06   -0.65261E-08  4128   0.202E-04    0.307E-04
DAV:   9    -0.133004387297E+04   -0.68796E-06   -0.27188E-08  3968   0.135E-04    0.183E-04
DAV:  10    -0.133004387362E+04   -0.64955E-06   -0.25452E-08  3904   0.122E-04    0.102E-04
DAV:  11    -0.133004387411E+04   -0.48830E-06   -0.18236E-08  3712   0.100E-04    0.832E-05
DAV:  12    -0.133004387442E+04   -0.30524E-06   -0.84916E-09  3616   0.810E-05    0.541E-05
DAV:  13    -0.133004387469E+04   -0.27624E-06   -0.10328E-08  3712   0.809E-05    0.334E-05
DAV:  14    -0.133004387478E+04   -0.88505E-07   -0.21605E-09  3200   0.622E-05    0.271E-05
DAV:  15    -0.133004387484E+04   -0.60536E-07   -0.15381E-09  3136   0.483E-05    0.168E-05
DAV:  16    -0.133004387487E+04   -0.28929E-07   -0.45531E-10  3072   0.368E-05    0.119E-05
DAV:  17    -0.133004387488E+04   -0.14072E-07   -0.47957E-11  3072   0.311E-05    0.780E-06
DAV:  18    -0.133004387489E+04   -0.40163E-08    0.28550E-10  3072   0.226E-05
  37 F= -.13490486E+04 E0= -.13490486E+04  d E =0.546387E-03  mag=     0.0000
       N       E                     dE             d eps       ncg     rms          rms(c)
DAV:   1    -0.133004453137E+04   -0.65649E-03   -0.49304E-01  5120   0.488E-01    0.133E-01
DAV:   2    -0.133004469070E+04   -0.15932E-03   -0.50505E-03  5536   0.466E-02    0.911E-02
DAV:   3    -0.133004454381E+04    0.14689E-03   -0.68486E-04  5888   0.197E-02    0.277E-02
DAV:   4    -0.133004455678E+04   -0.12974E-04   -0.18488E-04  6016   0.691E-03    0.105E-02
DAV:   5    -0.133004455634E+04    0.44979E-06   -0.14607E-05  5696   0.256E-03    0.463E-03
DAV:   6    -0.133004455695E+04   -0.61710E-06   -0.16090E-06  6208   0.108E-03    0.177E-03
DAV:   7    -0.133004455765E+04   -0.69840E-06   -0.43322E-07  5440   0.657E-04    0.659E-04
DAV:   8    -0.133004455833E+04   -0.68110E-06   -0.13409E-07  4864   0.327E-04    0.389E-04
DAV:   9    -0.133004455888E+04   -0.55133E-06   -0.39172E-08  4128   0.195E-04    0.254E-04
DAV:  10    -0.133004455963E+04   -0.75094E-06   -0.29123E-08  3904   0.170E-04    0.144E-04
DAV:  11    -0.133004456023E+04   -0.59369E-06   -0.29766E-08  3904   0.157E-04    0.950E-05
DAV:  12    -0.133004456063E+04   -0.39861E-06   -0.12779E-08  3520   0.985E-05    0.677E-05
DAV:  13    -0.133004456090E+04   -0.27614E-06   -0.75588E-09  3488   0.824E-05    0.414E-05
DAV:  14    -0.133004456107E+04   -0.17128E-06   -0.48858E-09  3328   0.817E-05    0.278E-05
DAV:  15    -0.133004456116E+04   -0.85958E-07   -0.25294E-09  3136   0.646E-05    0.192E-05
DAV:  16    -0.133004456122E+04   -0.64654E-07   -0.14793E-09  3136   0.503E-05    0.121E-05
DAV:  17    -0.133004456125E+04   -0.30166E-07   -0.44858E-10  3072   0.388E-05    0.950E-06
DAV:  18    -0.133004456127E+04   -0.11190E-07    0.20518E-10  3072   0.265E-05    0.649E-06
DAV:  19    -0.133004456128E+04   -0.96334E-08    0.50851E-10  3072   0.194E-05
  38 F= -.13490496E+04 E0= -.13490496E+04  d E =-.957150E-03  mag=    -0.0000
       N       E                     dE             d eps       ncg     rms          rms(c)
DAV:   1    -0.133004446887E+04    0.92399E-04   -0.48479E-01  5056   0.452E-01    0.140E-01
DAV:   2    -0.133004453288E+04   -0.64017E-04   -0.47399E-03  5472   0.411E-02    0.822E-02
DAV:   3    -0.133004440831E+04    0.12457E-03   -0.79789E-04  5600   0.181E-02    0.264E-02
DAV:   4    -0.133004441582E+04   -0.75045E-05   -0.14847E-04  5856   0.633E-03    0.128E-02
DAV:   5    -0.133004441430E+04    0.15183E-05   -0.16485E-05  5920   0.268E-03    0.522E-03
DAV:   6    -0.133004441448E+04   -0.17506E-06   -0.14405E-06  6368   0.110E-03    0.187E-03
DAV:   7    -0.133004441478E+04   -0.30229E-06   -0.29242E-07  5616   0.514E-04    0.651E-04
DAV:   8    -0.133004441527E+04   -0.49417E-06   -0.83710E-08  4832   0.307E-04    0.395E-04
DAV:   9    -0.133004441583E+04   -0.56258E-06   -0.33085E-08  4064   0.213E-04    0.239E-04
DAV:  10    -0.133004441652E+04   -0.68285E-06   -0.32766E-08  4000   0.198E-04    0.145E-04
DAV:  11    -0.133004441709E+04   -0.56981E-06   -0.33480E-08  3968   0.172E-04    0.102E-04
DAV:  12    -0.133004441745E+04   -0.36033E-06   -0.12359E-08  3616   0.103E-04    0.734E-05
DAV:  13    -0.133004441771E+04   -0.26665E-06   -0.83002E-09  3552   0.861E-05    0.433E-05
DAV:  14    -0.133004441786E+04   -0.14759E-06   -0.36202E-09  3360   0.722E-05    0.329E-05
DAV:  15    -0.133004441797E+04   -0.11107E-06   -0.31645E-09  3264   0.619E-05    0.189E-05
DAV:  16    -0.133004441803E+04   -0.60638E-07   -0.10919E-09  3072   0.512E-05    0.172E-05
DAV:  17    -0.133004441807E+04   -0.33164E-07   -0.42348E-10  3136   0.367E-05    0.123E-05
DAV:  18    -0.133004441808E+04   -0.16269E-07    0.23404E-10  3072   0.289E-05    0.866E-06
DAV:  19    -0.133004441809E+04   -0.11467E-07    0.41869E-10  3072   0.210E-05    0.890E-06
DAV:  20    -0.133004441810E+04   -0.50204E-08    0.65572E-10  2944   0.132E-05
  39 F= -.13490494E+04 E0= -.13490494E+04  d E =0.151820E-03  mag=    -0.0000
       N       E                     dE             d eps       ncg     rms          rms(c)
DAV:   1    -0.133004483180E+04   -0.41371E-03   -0.49413E-01  5056   0.433E-01    0.145E-01
DAV:   2    -0.133004469837E+04    0.13344E-03   -0.42462E-03  5600   0.419E-02    0.865E-02
DAV:   3    -0.133004453805E+04    0.16032E-03   -0.10810E-03  5888   0.223E-02    0.228E-02
DAV:   4    -0.133004454444E+04   -0.63923E-05   -0.15444E-04  6016   0.762E-03    0.138E-02
DAV:   5    -0.133004454281E+04    0.16301E-05   -0.23203E-05  5632   0.389E-03    0.492E-03
DAV:   6    -0.133004454290E+04   -0.87341E-07   -0.29426E-06  6256   0.179E-03    0.273E-03
DAV:   7    -0.133004454328E+04   -0.38577E-06   -0.57478E-07  5952   0.999E-04    0.937E-04
DAV:   8    -0.133004454416E+04   -0.87448E-06   -0.18666E-07  5456   0.645E-04    0.594E-04
DAV:   9    -0.133004454532E+04   -0.11633E-05   -0.73793E-08  4704   0.411E-04    0.362E-04
DAV:  10    -0.133004454671E+04   -0.13891E-05   -0.78908E-08  4368   0.414E-04    0.206E-04
DAV:  11    -0.133004454782E+04   -0.11106E-05   -0.76692E-08  4304   0.320E-04    0.154E-04
DAV:  12    -0.133004454861E+04   -0.79062E-06   -0.31571E-08  3648   0.179E-04    0.939E-05
DAV:  13    -0.133004454913E+04   -0.51732E-06   -0.19101E-08  3664   0.117E-04    0.544E-05
DAV:  14    -0.133004454942E+04   -0.29280E-06   -0.81117E-09  3488   0.992E-05    0.377E-05
DAV:  15    -0.133004454959E+04   -0.17069E-06   -0.46992E-09  3296   0.950E-05    0.259E-05
DAV:  16    -0.133004454970E+04   -0.10534E-06   -0.29338E-09  3264   0.783E-05    0.163E-05
DAV:  17    -0.133004454976E+04   -0.60318E-07   -0.97404E-10  3136   0.504E-05    0.115E-05
DAV:  18    -0.133004454978E+04   -0.29380E-07   -0.17739E-11  3072   0.340E-05    0.824E-06
DAV:  19    -0.133004454980E+04   -0.14814E-07    0.32108E-10  3072   0.244E-05    0.587E-06
DAV:  20    -0.133004454980E+04   -0.39581E-08    0.60784E-10  3072   0.144E-05
  40 F= -.13490496E+04 E0= -.13490496E+04  d E =-.179998E-03  mag=     0.0000
       N       E                     dE             d eps       ncg     rms          rms(c)
DAV:   1    -0.133004402504E+04    0.52476E-03   -0.49923E-01  5056   0.469E-01    0.133E-01
DAV:   2    -0.133004415610E+04   -0.13106E-03   -0.47605E-03  5600   0.441E-02    0.854E-02
DAV:   3    -0.133004401716E+04    0.13894E-03   -0.60338E-04  5792   0.215E-02    0.218E-02
DAV:   4    -0.133004403031E+04   -0.13141E-04   -0.17453E-04  6304   0.835E-03    0.115E-02
DAV:   5    -0.133004402911E+04    0.11915E-05   -0.12547E-05  5792   0.375E-03    0.627E-03
DAV:   6    -0.133004402904E+04    0.69311E-07   -0.24908E-06  6080   0.192E-03    0.234E-03
DAV:   7    -0.133004402940E+04   -0.35597E-06   -0.69085E-07  6432   0.123E-03    0.112E-03
DAV:   8    -0.133004403009E+04   -0.68588E-06   -0.29571E-07  5504   0.746E-04    0.702E-04
DAV:   9    -0.133004403063E+04   -0.54618E-06   -0.10572E-07  4960   0.436E-04    0.434E-04
DAV:  10    -0.133004403137E+04   -0.73433E-06   -0.43077E-08  4352   0.425E-04    0.269E-04
DAV:  11    -0.133004403203E+04   -0.65893E-06   -0.62661E-08  4640   0.415E-04    0.171E-04
DAV:  12    -0.133004403264E+04   -0.61159E-06   -0.40816E-08  3904   0.290E-04    0.127E-04
DAV:  13    -0.133004403297E+04   -0.33350E-06   -0.15231E-08  3584   0.131E-04    0.861E-05
DAV:  14    -0.133004403322E+04   -0.25361E-06   -0.58152E-09  3328   0.748E-05    0.576E-05
DAV:  15    -0.133004403346E+04   -0.23188E-06   -0.74515E-09  3488   0.709E-05    0.433E-05
DAV:  16    -0.133004403355E+04   -0.95388E-07   -0.28515E-09  3232   0.739E-05    0.264E-05
DAV:  17    -0.133004403361E+04   -0.58324E-07   -0.23482E-09  3136   0.708E-05    0.299E-05
DAV:  18    -0.133004403363E+04   -0.17521E-07   -0.55832E-10  3136   0.512E-05    0.211E-05
DAV:  19    -0.133004403364E+04   -0.86147E-08    0.73416E-12  3072   0.336E-05
  41 F= -.13490490E+04 E0= -.13490490E+04  d E =0.594189E-03  mag=     0.0000
       N       E                     dE             d eps       ncg     rms          rms(c)
DAV:   1    -0.133004382423E+04    0.20940E-03   -0.47880E-01  4992   0.481E-01    0.138E-01
DAV:   2    -0.133004398501E+04   -0.16078E-03   -0.45575E-03  5568   0.442E-02    0.839E-02
DAV:   3    -0.133004389027E+04    0.94735E-04   -0.63196E-04  5728   0.154E-02    0.296E-02
DAV:   4    -0.133004389620E+04   -0.59326E-05   -0.11179E-04  6016   0.599E-03    0.130E-02
DAV:   5    -0.133004389544E+04    0.76415E-06   -0.15649E-05  6048   0.251E-03    0.515E-03
DAV:   6    -0.133004389615E+04   -0.71363E-06   -0.19393E-06  5760   0.102E-03    0.191E-03
DAV:   7    -0.133004389682E+04   -0.67269E-06   -0.41970E-07  5216   0.526E-04    0.641E-04
DAV:   8    -0.133004389727E+04   -0.44423E-06   -0.81928E-08  4224   0.253E-04    0.296E-04
DAV:   9    -0.133004389770E+04   -0.43167E-06   -0.19852E-08  3712   0.140E-04    0.163E-04
DAV:  10    -0.133004389808E+04   -0.38058E-06   -0.82426E-09  3520   0.892E-05    0.103E-04
DAV:  11    -0.133004389855E+04   -0.46569E-06   -0.15858E-08  3584   0.994E-05    0.720E-05
DAV:  12    -0.133004389880E+04   -0.24808E-06   -0.74559E-09  3552   0.838E-05    0.507E-05
DAV:  13    -0.133004389900E+04   -0.20205E-06   -0.72116E-09  3456   0.788E-05    0.400E-05
DAV:  14    -0.133004389907E+04   -0.70504E-07   -0.22183E-09  3200   0.569E-05    0.324E-05
DAV:  15    -0.133004389911E+04   -0.40047E-07   -0.96127E-10  3072   0.471E-05    0.148E-05
DAV:  16    -0.133004389914E+04   -0.27416E-07   -0.66389E-10  3136   0.415E-05    0.255E-05
DAV:  17    -0.133004389914E+04   -0.68540E-08    0.25535E-10  3072   0.274E-05
  42 F= -.13490490E+04 E0= -.13490490E+04  d E =0.690741E-04  mag=     0.0000
       N       E                     dE             d eps       ncg     rms          rms(c)
DAV:   1    -0.133004371579E+04    0.18334E-03   -0.48854E-01  4992   0.482E-01    0.136E-01
DAV:   2    -0.133004385892E+04   -0.14313E-03   -0.42691E-03  5376   0.426E-02    0.871E-02
DAV:   3    -0.133004375755E+04    0.10137E-03   -0.63058E-04  5728   0.165E-02    0.263E-02
DAV:   4    -0.133004376769E+04   -0.10136E-04   -0.12764E-04  6240   0.581E-03    0.111E-02
DAV:   5    -0.133004376717E+04    0.51543E-06   -0.12476E-05  5920   0.261E-03    0.482E-03
DAV:   6    -0.133004376800E+04   -0.82684E-06   -0.15999E-06  5792   0.987E-04    0.183E-03
DAV:   7    -0.133004376905E+04   -0.10500E-05   -0.50417E-07  5216   0.660E-04    0.651E-04
DAV:   8    -0.133004376979E+04   -0.74346E-06   -0.99797E-08  4576   0.296E-04    0.354E-04
DAV:   9    -0.133004377064E+04   -0.84286E-06   -0.31762E-08  3936   0.175E-04    0.209E-04
DAV:  10    -0.133004377136E+04   -0.72060E-06   -0.17584E-08  3680   0.128E-04    0.129E-04
DAV:  11    -0.133004377233E+04   -0.97229E-06   -0.37543E-08  3936   0.154E-04    0.112E-04
DAV:  12    -0.133004377275E+04   -0.41547E-06   -0.11319E-08  3680   0.106E-04    0.641E-05
DAV:  13    -0.133004377308E+04   -0.33395E-06   -0.87542E-09  3520   0.100E-04    0.603E-05
DAV:  14    -0.133004377327E+04   -0.19190E-06   -0.50634E-09  3424   0.894E-05    0.509E-05
DAV:  15    -0.133004377335E+04   -0.80341E-07   -0.21556E-09  3136   0.708E-05    0.247E-05
DAV:  16    -0.133004377342E+04   -0.70795E-07   -0.19842E-09  3136   0.649E-05    0.369E-05
DAV:  17    -0.133004377344E+04   -0.21435E-07   -0.47350E-10  3072   0.459E-05    0.309E-05
DAV:  18    -0.133004377345E+04   -0.61409E-08    0.23681E-10  3072   0.275E-05
  43 F= -.13490486E+04 E0= -.13490486E+04  d E =0.347018E-03  mag=     0.0000
