       N       E                     dE             d eps       ncg     rms          rms(c)
DAV:   1    -0.137785024014E+04   -0.13779E+04   -0.13201E+00  6272   0.975E-01    0.941E-01
DAV:   2    -0.137957600064E+04   -0.17258E+01   -0.11762E+00  6176   0.950E-01    0.408E-01
DAV:   3    -0.137958557027E+04   -0.95696E-02   -0.42398E-02  6720   0.228E-01    0.275E-01
DAV:   4    -0.137958562494E+04   -0.54669E-04   -0.21034E-03  5600   0.567E-02    0.222E-01
DAV:   5    -0.137958563225E+04   -0.73084E-05   -0.18935E-04  6720   0.177E-02    0.187E-01
DAV:   6    -0.137958564401E+04   -0.11763E-04   -0.22083E-05  7104   0.698E-03    0.161E-01
DAV:   7    -0.137958565021E+04   -0.61921E-05   -0.23273E-05  6784   0.822E-03    0.128E-01
DAV:   8    -0.137958565501E+04   -0.48034E-05   -0.17738E-05  7040   0.668E-03    0.104E-01
DAV:   9    -0.137958565895E+04   -0.39453E-05   -0.50581E-06  7296   0.340E-03    0.890E-02
DAV:  10    -0.137958566351E+04   -0.45504E-05   -0.14629E-05  6560   0.659E-03    0.585E-02
DAV:  11    -0.137958566705E+04   -0.35409E-05   -0.38518E-05  6656   0.103E-02    0.162E-02
DAV:  12    -0.137958566818E+04   -0.11315E-05   -0.55399E-06  6976   0.307E-03    0.954E-03
DAV:  13    -0.137958566837E+04   -0.19104E-06   -0.75049E-07  6400   0.141E-03    0.395E-03
DAV:  14    -0.137958566839E+04   -0.19732E-07   -0.32841E-07  7280   0.754E-04    0.207E-03
DAV:  15    -0.137958566834E+04    0.47308E-07   -0.18476E-08  3136   0.295E-04    0.765E-04
DAV:  16    -0.137958566833E+04    0.13373E-07   -0.47103E-08  4288   0.298E-04    0.531E-04
DAV:  17    -0.137958566831E+04    0.16560E-07   -0.44514E-09  3136   0.117E-04    0.516E-04
DAV:  18    -0.137958566832E+04   -0.50641E-08   -0.20840E-09  3072   0.873E-05
   1 F= -.13988434E+04 E0= -.13988434E+04  d E =-.139884E+04  mag=    -0.0000
       N       E                     dE             d eps       ncg     rms          rms(c)
DAV:   1    -0.137958455049E+04    0.11178E-02   -0.58225E-01  5120   0.890E-01    0.129E-01
DAV:   2    -0.137958486502E+04   -0.31453E-03   -0.50744E-03  5472   0.837E-02    0.930E-02
DAV:   3    -0.137958479706E+04    0.67958E-04   -0.59973E-04  6208   0.431E-02    0.362E-02
DAV:   4    -0.137958480395E+04   -0.68857E-05   -0.12799E-04  6016   0.166E-02    0.169E-02
DAV:   5    -0.137958480001E+04    0.39337E-05   -0.38012E-05  6016   0.965E-03    0.736E-03
DAV:   6    -0.137958479940E+04    0.61485E-06   -0.49343E-06  5888   0.322E-03    0.410E-03
DAV:   7    -0.137958479932E+04    0.83339E-07   -0.31669E-06  6352   0.259E-03    0.185E-03
DAV:   8    -0.137958479933E+04   -0.17550E-07   -0.44818E-07  5792   0.117E-03    0.117E-03
DAV:   9    -0.137958479944E+04   -0.10250E-06   -0.18203E-07  5440   0.692E-04    0.526E-04
DAV:  10    -0.137958479954E+04   -0.10144E-06   -0.81916E-08  5440   0.525E-04    0.513E-04
DAV:  11    -0.137958479964E+04   -0.10172E-06   -0.42790E-08  4640   0.348E-04    0.261E-04
DAV:  12    -0.137958479973E+04   -0.95475E-07   -0.12417E-08  3520   0.219E-04    0.122E-04
DAV:  13    -0.137958479985E+04   -0.11908E-06   -0.13870E-08  3552   0.203E-04    0.163E-04
DAV:  14    -0.137958479992E+04   -0.63897E-07   -0.58470E-09  3104   0.125E-04    0.106E-04
DAV:  15    -0.137958479998E+04   -0.57582E-07   -0.56785E-09  3136   0.105E-04    0.597E-05
DAV:  16    -0.137958480001E+04   -0.32916E-07   -0.20274E-09  3072   0.592E-05    0.611E-05
DAV:  17    -0.137958480004E+04   -0.30108E-07   -0.13390E-09  3072   0.511E-05    0.280E-05
DAV:  18    -0.137958480005E+04   -0.13359E-07   -0.64719E-10  3072   0.408E-05    0.200E-05
DAV:  19    -0.137958480006E+04   -0.97061E-08    0.14735E-10  2944   0.254E-05
   2 F= -.13988428E+04 E0= -.13988428E+04  d E =0.662319E-03  mag=    -0.0000
       N       E                     dE             d eps       ncg     rms          rms(c)
DAV:   1    -0.137958453045E+04    0.26960E-03   -0.11626E+00  5120   0.125E+00    0.144E-01
DAV:   2    -0.137958534149E+04   -0.81104E-03   -0.10706E-02  5536   0.111E-01    0.934E-02
DAV:   3    -0.137958524745E+04    0.94042E-04   -0.90459E-04  6400   0.405E-02    0.493E-02
DAV:   4    -0.137958523351E+04    0.13939E-04   -0.25392E-04  5568   0.241E-02    0.181E-02
DAV:   5    -0.137958522976E+04    0.37523E-05   -0.65614E-05  5472   0.125E-02    0.106E-02
DAV:   6    -0.137958523037E+04   -0.60943E-06   -0.17630E-05  6304   0.480E-03    0.684E-03
DAV:   7    -0.137958522979E+04    0.58024E-06   -0.34961E-06  6528   0.278E-03    0.355E-03
DAV:   8    -0.137958522991E+04   -0.12244E-06   -0.20164E-06  6176   0.207E-03    0.232E-03
DAV:   9    -0.137958522992E+04   -0.14028E-07   -0.50582E-07  6512   0.101E-03    0.959E-04
DAV:  10    -0.137958523007E+04   -0.15087E-06   -0.10191E-07  4800   0.427E-04    0.322E-04
DAV:  11    -0.137958523022E+04   -0.14549E-06   -0.30725E-08  4480   0.283E-04    0.336E-04
DAV:  12    -0.137958523033E+04   -0.11554E-06   -0.14347E-08  3680   0.235E-04    0.147E-04
DAV:  13    -0.137958523043E+04   -0.95417E-07   -0.18943E-08  4032   0.202E-04    0.166E-04
DAV:  14    -0.137958523049E+04   -0.57495E-07   -0.35680E-09  3104   0.107E-04    0.843E-05
DAV:  15    -0.137958523055E+04   -0.58761E-07   -0.47346E-09  3168   0.983E-05    0.607E-05
DAV:  16    -0.137958523058E+04   -0.29177E-07   -0.95474E-10  3072   0.551E-05    0.424E-05
DAV:  17    -0.137958523060E+04   -0.19252E-07   -0.54528E-10  3072   0.447E-05    0.200E-05
DAV:  18    -0.137958523060E+04   -0.93569E-08   -0.70710E-12  3072   0.285E-05
   3 F= -.13988431E+04 E0= -.13988431E+04  d E =-.321339E-03  mag=    -0.0000
       N       E                     dE             d eps       ncg     rms          rms(c)
DAV:   1    -0.137958452651E+04    0.70408E-03   -0.11549E+00  5120   0.125E+00    0.130E-01
DAV:   2    -0.137958507102E+04   -0.54450E-03   -0.94413E-03  5664   0.113E-01    0.918E-02
DAV:   3    -0.137958493837E+04    0.13265E-03   -0.11139E-03  6368   0.506E-02    0.413E-02
DAV:   4    -0.137958494074E+04   -0.23691E-05   -0.18254E-04  6048   0.188E-02    0.201E-02
DAV:   5    -0.137958493662E+04    0.41150E-05   -0.41366E-05  5664   0.111E-02    0.832E-03
DAV:   6    -0.137958493612E+04    0.49692E-06   -0.55803E-06  5984   0.388E-03    0.411E-03
DAV:   7    -0.137958493610E+04    0.20649E-07   -0.40428E-06  6432   0.313E-03    0.265E-03
DAV:   8    -0.137958493608E+04    0.20242E-07   -0.92791E-07  6336   0.148E-03    0.137E-03
DAV:   9    -0.137958493618E+04   -0.97381E-07   -0.39847E-07  5792   0.113E-03    0.853E-04
DAV:  10    -0.137958493635E+04   -0.16857E-06   -0.12744E-07  5888   0.843E-04    0.683E-04
DAV:  11    -0.137958493652E+04   -0.17445E-06   -0.11531E-07  5792   0.682E-04    0.286E-04
DAV:  12    -0.137958493678E+04   -0.26099E-06   -0.49343E-08  5344   0.601E-04    0.261E-04
DAV:  13    -0.137958493691E+04   -0.12953E-06   -0.50610E-08  4384   0.322E-04    0.252E-04
DAV:  14    -0.137958493698E+04   -0.71595E-07   -0.72979E-09  3552   0.112E-04    0.187E-04
DAV:  15    -0.137958493711E+04   -0.12813E-06   -0.67720E-09  3264   0.114E-04    0.798E-05
DAV:  16    -0.137958493718E+04   -0.69631E-07   -0.43964E-09  3200   0.872E-05    0.505E-05
DAV:  17    -0.137958493724E+04   -0.56709E-07   -0.26034E-09  3104   0.637E-05    0.387E-05
DAV:  18    -0.137958493728E+04   -0.38126E-07   -0.16530E-09  3072   0.478E-05    0.404E-05
DAV:  19    -0.137958493730E+04   -0.17913E-07   -0.75573E-10  3136   0.452E-05    0.240E-05
DAV:  20    -0.137958493731E+04   -0.12617E-07   -0.45680E-10  3072   0.454E-05    0.137E-05
DAV:  21    -0.137958493731E+04   -0.32887E-08    0.15444E-10  3072   0.342E-05
   4 F= -.13988433E+04 E0= -.13988433E+04  d E =-.205815E-03  mag=    -0.0000
       N       E                     dE             d eps       ncg     rms          rms(c)
DAV:   1    -0.137958431467E+04    0.62264E-03   -0.11576E+00  5120   0.128E+00    0.172E-01
DAV:   2    -0.137958542602E+04   -0.11113E-02   -0.14087E-02  5504   0.133E-01    0.116E-01
DAV:   3    -0.137958526802E+04    0.15800E-03   -0.11523E-03  6496   0.490E-02    0.669E-02
DAV:   4    -0.137958523515E+04    0.32867E-04   -0.45747E-04  5888   0.370E-02    0.221E-02
DAV:   5    -0.137958522957E+04    0.55824E-05   -0.12121E-04  5536   0.173E-02    0.147E-02
DAV:   6    -0.137958522763E+04    0.19439E-05   -0.34611E-05  6304   0.746E-03    0.887E-03
DAV:   7    -0.137958522593E+04    0.16945E-05   -0.80675E-06  6784   0.460E-03    0.424E-03
DAV:   8    -0.137958522519E+04    0.74308E-06   -0.31899E-06  5888   0.322E-03    0.310E-03
DAV:   9    -0.137958522463E+04    0.55917E-06   -0.11729E-06  6720   0.221E-03    0.154E-03
DAV:  10    -0.137958522494E+04   -0.30934E-06   -0.97645E-07  5952   0.185E-03    0.142E-03
DAV:  11    -0.137958522542E+04   -0.47889E-06   -0.36476E-07  6752   0.150E-03    0.984E-04
DAV:  12    -0.137958522622E+04   -0.80488E-06   -0.36274E-07  5568   0.113E-03    0.380E-04
DAV:  13    -0.137958522688E+04   -0.65661E-06   -0.11988E-07  5600   0.524E-04    0.330E-04
DAV:  14    -0.137958522728E+04   -0.40045E-06   -0.22043E-08  4096   0.224E-04    0.229E-04
DAV:  15    -0.137958522790E+04   -0.62420E-06   -0.34997E-08  4160   0.190E-04    0.124E-04
DAV:  16    -0.137958522811E+04   -0.20322E-06   -0.79422E-09  3552   0.994E-05    0.798E-05
DAV:  17    -0.137958522834E+04   -0.23811E-06   -0.98844E-09  3392   0.926E-05    0.561E-05
DAV:  18    -0.137958522842E+04   -0.78799E-07   -0.23937E-09  3136   0.554E-05    0.529E-05
DAV:  19    -0.137958522848E+04   -0.61555E-07   -0.22272E-09  3152   0.490E-05    0.383E-05
DAV:  20    -0.137958522852E+04   -0.36729E-07   -0.14756E-09  3072   0.473E-05    0.255E-05
DAV:  21    -0.137958522853E+04   -0.10434E-07   -0.23583E-10  3136   0.380E-05    0.174E-05
DAV:  22    -0.137958522853E+04   -0.29104E-08    0.12480E-10  3072   0.317E-05
   5 F= -.13988427E+04 E0= -.13988427E+04  d E =0.643000E-03  mag=     0.0000
       N       E                     dE             d eps       ncg     rms          rms(c)
DAV:   1    -0.137958430061E+04    0.92792E-03   -0.11635E+00  5120   0.117E+00    0.999E-02
DAV:   2    -0.137958484183E+04   -0.54122E-03   -0.82802E-03  5472   0.966E-02    0.610E-02
DAV:   3    -0.137958475017E+04    0.91663E-04   -0.69023E-04  6272   0.319E-02    0.253E-02
DAV:   4    -0.137958474315E+04    0.70190E-05   -0.11648E-04  5984   0.132E-02    0.136E-02
DAV:   5    -0.137958474181E+04    0.13425E-05   -0.12061E-05  5568   0.495E-03    0.651E-03
DAV:   6    -0.137958474101E+04    0.80373E-06   -0.26532E-06  5504   0.255E-03    0.214E-03
DAV:   7    -0.137958474109E+04   -0.85362E-07   -0.13162E-06  6752   0.164E-03    0.142E-03
DAV:   8    -0.137958474119E+04   -0.10352E-06   -0.26214E-07  5584   0.771E-04    0.862E-04
DAV:   9    -0.137958474154E+04   -0.34475E-06   -0.10810E-07  5648   0.647E-04    0.473E-04
DAV:  10    -0.137958474192E+04   -0.38298E-06   -0.94110E-08  5632   0.564E-04    0.287E-04
DAV:  11    -0.137958474228E+04   -0.35818E-06   -0.57650E-08  4848   0.380E-04    0.201E-04
DAV:  12    -0.137958474261E+04   -0.32748E-06   -0.18082E-08  3808   0.237E-04    0.130E-04
DAV:  13    -0.137958474285E+04   -0.23781E-06   -0.15936E-08  3936   0.175E-04    0.801E-05
DAV:  14    -0.137958474300E+04   -0.15069E-06   -0.63901E-09  3424   0.110E-04    0.566E-05
DAV:  15    -0.137958474312E+04   -0.12178E-06   -0.43524E-09  3104   0.880E-05    0.379E-05
DAV:  16    -0.137958474318E+04   -0.65673E-07   -0.32193E-09  3136   0.843E-05    0.256E-05
DAV:  17    -0.137958474323E+04   -0.50743E-07   -0.33113E-09  3104   0.918E-05    0.248E-05
DAV:  18    -0.137958474325E+04   -0.17011E-07   -0.11701E-09  3136   0.617E-05    0.223E-05
DAV:  19    -0.137958474326E+04   -0.80181E-08    0.63016E-12  3008   0.337E-05
   6 F= -.13988424E+04 E0= -.13988424E+04  d E =0.213100E-03  mag=    -0.0000
       N       E                     dE             d eps       ncg     rms          rms(c)
DAV:   1    -0.137958388239E+04    0.86086E-03   -0.11658E+00  5120   0.116E+00    0.154E-01
DAV:   2    -0.137958467721E+04   -0.79482E-03   -0.11770E-02  5504   0.115E-01    0.104E-01
DAV:   3    -0.137958454392E+04    0.13328E-03   -0.12130E-03  6336   0.520E-02    0.444E-02
DAV:   4    -0.137958454626E+04   -0.23356E-05   -0.25450E-04  6400   0.222E-02    0.220E-02
DAV:   5    -0.137958453957E+04    0.66887E-05   -0.43604E-05  6208   0.997E-03    0.103E-02
DAV:   6    -0.137958453692E+04    0.26514E-05   -0.67228E-06  5984   0.416E-03    0.461E-03
DAV:   7    -0.137958453644E+04    0.48309E-06   -0.34412E-06  6816   0.295E-03    0.224E-03
DAV:   8    -0.137958453650E+04   -0.62078E-07   -0.80125E-07  6720   0.187E-03    0.139E-03
DAV:   9    -0.137958453708E+04   -0.58232E-06   -0.42814E-07  6848   0.193E-03    0.811E-04
DAV:  10    -0.137958453803E+04   -0.95063E-06   -0.45228E-07  6016   0.147E-03    0.722E-04
DAV:  11    -0.137958453928E+04   -0.12514E-05   -0.36610E-07  5824   0.104E-03    0.437E-04
DAV:  12    -0.137958454024E+04   -0.95680E-06   -0.11141E-07  5344   0.624E-04    0.300E-04
DAV:  13    -0.137958454086E+04   -0.61910E-06   -0.48825E-08  4544   0.286E-04    0.254E-04
DAV:  14    -0.137958454142E+04   -0.56312E-06   -0.19699E-08  3872   0.161E-04    0.127E-04
DAV:  15    -0.137958454190E+04   -0.47807E-06   -0.17435E-08  3680   0.126E-04    0.112E-04
DAV:  16    -0.137958454214E+04   -0.23676E-06   -0.76743E-09  3328   0.105E-04    0.659E-05
DAV:  17    -0.137958454232E+04   -0.18859E-06   -0.82205E-09  3360   0.108E-04    0.503E-05
DAV:  18    -0.137958454240E+04   -0.71799E-07   -0.38672E-09  3200   0.985E-05    0.328E-05
DAV:  19    -0.137958454245E+04   -0.58106E-07   -0.32082E-09  3136   0.840E-05    0.216E-05
DAV:  20    -0.137958454248E+04   -0.27620E-07   -0.10438E-09  3072   0.524E-05    0.263E-05
DAV:  21    -0.137958454249E+04   -0.10201E-07    0.12047E-10  3072   0.280E-05    0.175E-05
DAV:  22    -0.137958454250E+04   -0.78144E-08    0.38204E-10  3008   0.229E-05
   7 F= -.13988432E+04 E0= -.13988432E+04  d E =-.719108E-03  mag=     0.0000
       N       E                     dE             d eps       ncg     rms          rms(c)
DAV:   1    -0.137958414296E+04    0.39953E-03   -0.11605E+00  5120   0.118E+00    0.182E-01
DAV:   2    -0.137958535420E+04   -0.12112E-02   -0.14936E-02  5632   0.124E-01    0.135E-01
DAV:   3    -0.137958517149E+04    0.18271E-03   -0.14418E-03  6304   0.562E-02    0.752E-02
DAV:   4    -0.137958515603E+04    0.15465E-04   -0.49557E-04  6048   0.386E-02    0.245E-02
DAV:   5    -0.137958514412E+04    0.11907E-04   -0.17804E-04  5504   0.220E-02    0.143E-02
DAV:   6    -0.137958514151E+04    0.26099E-05   -0.33845E-05  5728   0.724E-03    0.716E-03
DAV:   7    -0.137958514061E+04    0.89852E-06   -0.63064E-06  6880   0.399E-03    0.393E-03
DAV:   8    -0.137958514005E+04    0.56284E-06   -0.26076E-06  6592   0.335E-03    0.287E-03
DAV:   9    -0.137958513983E+04    0.21557E-06   -0.13748E-06  7040   0.247E-03    0.132E-03
DAV:  10    -0.137958514073E+04   -0.89890E-06   -0.72861E-07  6496   0.168E-03    0.128E-03
DAV:  11    -0.137958514234E+04   -0.16080E-05   -0.49621E-07  6368   0.195E-03    0.718E-04
DAV:  12    -0.137958514397E+04   -0.16323E-05   -0.53387E-07  5552   0.109E-03    0.480E-04
DAV:  13    -0.137958514493E+04   -0.95682E-06   -0.14681E-07  5664   0.489E-04    0.326E-04
DAV:  14    -0.137958514559E+04   -0.65903E-06   -0.20384E-08  3824   0.178E-04    0.202E-04
DAV:  15    -0.137958514647E+04   -0.88284E-06   -0.37804E-08  4256   0.160E-04    0.129E-04
DAV:  16    -0.137958514698E+04   -0.51227E-06   -0.16366E-08  3680   0.117E-04    0.978E-05
DAV:  17    -0.137958514728E+04   -0.30121E-06   -0.96172E-09  3328   0.101E-04    0.629E-05
DAV:  18    -0.137958514740E+04   -0.11605E-06   -0.39758E-09  3104   0.800E-05    0.555E-05
DAV:  19    -0.137958514750E+04   -0.96057E-07   -0.44949E-09  3168   0.620E-05    0.565E-05
DAV:  20    -0.137958514752E+04   -0.27067E-07   -0.11070E-09  3104   0.551E-05    0.355E-05
DAV:  21    -0.137958514754E+04   -0.14246E-07   -0.76681E-10  3104   0.500E-05    0.162E-05
DAV:  22    -0.137958514754E+04   -0.65920E-08    0.78806E-12  3072   0.316E-05
   8 F= -.13988427E+04 E0= -.13988427E+04  d E =0.499978E-03  mag=    -0.0000
       N       E                     dE             d eps       ncg     rms          rms(c)
DAV:   1    -0.137958392365E+04    0.12239E-02   -0.11711E+00  5120   0.112E+00    0.314E-01
DAV:   2    -0.137958459840E+04   -0.67476E-03   -0.11399E-02  5792   0.120E-01    0.258E-01
DAV:   3    -0.137958446368E+04    0.13472E-03   -0.35204E-03  6048   0.107E-01    0.651E-02
DAV:   4    -0.137958441080E+04    0.52884E-04   -0.89971E-04  5824   0.420E-02    0.392E-02
DAV:   5    -0.137958438843E+04    0.22369E-04   -0.18145E-04  6336   0.219E-02    0.174E-02
DAV:   6    -0.137958438630E+04    0.21249E-05   -0.41775E-05  6208   0.915E-03    0.688E-03
DAV:   7    -0.137958438632E+04   -0.13039E-07   -0.47169E-06  7040   0.307E-03    0.357E-03
DAV:   8    -0.137958438748E+04   -0.11598E-05   -0.11669E-06  6816   0.167E-03    0.187E-03
DAV:   9    -0.137958438883E+04   -0.13579E-05   -0.57311E-07  6432   0.139E-03    0.991E-04
DAV:  10    -0.137958439037E+04   -0.15318E-05   -0.24849E-07  5952   0.813E-04    0.627E-04
DAV:  11    -0.137958439219E+04   -0.18227E-05   -0.16114E-07  4832   0.771E-04    0.379E-04
DAV:  12    -0.137958439352E+04   -0.13323E-05   -0.13641E-07  5120   0.548E-04    0.351E-04
DAV:  13    -0.137958439416E+04   -0.64248E-06   -0.55282E-08  4768   0.263E-04    0.236E-04
DAV:  14    -0.137958439467E+04   -0.50158E-06   -0.14096E-08  3680   0.136E-04    0.148E-04
DAV:  15    -0.137958439509E+04   -0.42452E-06   -0.15120E-08  3904   0.114E-04    0.962E-05
DAV:  16    -0.137958439533E+04   -0.24495E-06   -0.56363E-09  3232   0.939E-05    0.658E-05
DAV:  17    -0.137958439552E+04   -0.18570E-06   -0.67572E-09  3296   0.915E-05    0.583E-05
DAV:  18    -0.137958439560E+04   -0.81549E-07   -0.30475E-09  3072   0.847E-05    0.353E-05
DAV:  19    -0.137958439564E+04   -0.41706E-07   -0.17481E-09  3136   0.674E-05    0.286E-05
DAV:  20    -0.137958439567E+04   -0.24447E-07   -0.65806E-10  3072   0.483E-05    0.256E-05
DAV:  21    -0.137958439568E+04   -0.13839E-07    0.16293E-10  3072   0.317E-05    0.165E-05
DAV:  22    -0.137958439569E+04   -0.80763E-08    0.55394E-10  3072   0.246E-05
   9 F= -.13988425E+04 E0= -.13988425E+04  d E =0.213611E-03  mag=     0.0000
       N       E                     dE             d eps       ncg     rms          rms(c)
DAV:   1    -0.137958411100E+04    0.28468E-03   -0.11502E+00  5120   0.112E+00    0.223E-01
DAV:   2    -0.137958515643E+04   -0.10454E-02   -0.12888E-02  5728   0.100E-01    0.165E-01
DAV:   3    -0.137958498894E+04    0.16749E-03   -0.14368E-03  6656   0.498E-02    0.838E-02
DAV:   4    -0.137958497515E+04    0.13787E-04   -0.35972E-04  5536   0.230E-02    0.313E-02
DAV:   5    -0.137958496245E+04    0.12701E-04   -0.14907E-04  5600   0.190E-02    0.129E-02
DAV:   6    -0.137958496388E+04   -0.14304E-05   -0.24899E-05  5440   0.632E-03    0.577E-03
DAV:   7    -0.137958496680E+04   -0.29157E-05   -0.55900E-06  6432   0.346E-03    0.279E-03
DAV:   8    -0.137958496916E+04   -0.23656E-05   -0.90446E-07  5696   0.133E-03    0.164E-03
DAV:   9    -0.137958497279E+04   -0.36276E-05   -0.75832E-07  5568   0.148E-03    0.116E-03
DAV:  10    -0.137958497630E+04   -0.35080E-05   -0.43707E-07  5568   0.863E-04    0.102E-03
DAV:  11    -0.137958497895E+04   -0.26518E-05   -0.44253E-07  5408   0.828E-04    0.565E-04
DAV:  12    -0.137958498086E+04   -0.19115E-05   -0.17763E-07  5184   0.520E-04    0.545E-04
DAV:  13    -0.137958498179E+04   -0.92326E-06   -0.59196E-08  4864   0.297E-04    0.249E-04
DAV:  14    -0.137958498266E+04   -0.86926E-06   -0.38488E-08  4272   0.177E-04    0.109E-04
DAV:  15    -0.137958498312E+04   -0.46245E-06   -0.13320E-08  3680   0.986E-05    0.776E-05
DAV:  16    -0.137958498351E+04   -0.39340E-06   -0.14005E-08  3792   0.915E-05    0.441E-05
DAV:  17    -0.137958498367E+04   -0.15921E-06   -0.38001E-09  3200   0.682E-05    0.389E-05
DAV:  18    -0.137958498375E+04   -0.80327E-07   -0.18006E-09  3072   0.606E-05    0.349E-05
DAV:  19    -0.137958498379E+04   -0.43641E-07   -0.89998E-10  3072   0.499E-05    0.248E-05
DAV:  20    -0.137958498382E+04   -0.27401E-07   -0.40509E-10  3072   0.425E-05    0.138E-05
DAV:  21    -0.137958498384E+04   -0.21799E-07    0.53773E-11  3072   0.364E-05    0.233E-05
DAV:  22    -0.137958498385E+04   -0.49622E-08    0.50847E-10  2944   0.216E-05
  10 F= -.13988432E+04 E0= -.13988432E+04  d E =-.742603E-03  mag=    -0.0000
       N       E                     dE             d eps       ncg     rms          rms(c)
DAV:   1    -0.137958552798E+04   -0.54413E-03   -0.60401E-01  5120   0.832E-01    0.132E-01
DAV:   2    -0.137958609249E+04   -0.56451E-03   -0.79395E-03  5696   0.857E-02    0.913E-02
DAV:   3    -0.137958601017E+04    0.82315E-04   -0.71828E-04  6464   0.347E-02    0.582E-02
DAV:   4    -0.137958599278E+04    0.17387E-04   -0.31462E-04  5440   0.268E-02    0.210E-02
DAV:   5    -0.137958598535E+04    0.74305E-05   -0.11024E-04  5440   0.172E-02    0.110E-02
DAV:   6    -0.137958598591E+04   -0.55566E-06   -0.20435E-05  6336   0.573E-03    0.690E-03
DAV:   7    -0.137958598572E+04    0.18744E-06   -0.55516E-06  6400   0.327E-03    0.355E-03
DAV:   8    -0.137958598657E+04   -0.84823E-06   -0.56302E-07  5408   0.125E-03    0.174E-03
DAV:   9    -0.137958598769E+04   -0.11151E-05   -0.35466E-07  5552   0.107E-03    0.757E-04
DAV:  10    -0.137958598882E+04   -0.11318E-05   -0.18966E-07  5568   0.671E-04    0.570E-04
DAV:  11    -0.137958599000E+04   -0.11812E-05   -0.76574E-08  4640   0.420E-04    0.381E-04
DAV:  12    -0.137958599099E+04   -0.99072E-06   -0.64917E-08  4640   0.366E-04    0.246E-04
DAV:  13    -0.137958599160E+04   -0.61473E-06   -0.44424E-08  4528   0.285E-04    0.177E-04
DAV:  14    -0.137958599199E+04   -0.39073E-06   -0.91872E-09  3424   0.116E-04    0.113E-04
DAV:  15    -0.137958599232E+04   -0.32248E-06   -0.12004E-08  3744   0.990E-05    0.672E-05
DAV:  16    -0.137958599250E+04   -0.18136E-06   -0.32677E-09  3168   0.663E-05    0.426E-05
DAV:  17    -0.137958599262E+04   -0.12197E-06   -0.24543E-09  3136   0.556E-05    0.348E-05
DAV:  18    -0.137958599270E+04   -0.77373E-07   -0.15633E-09  3104   0.623E-05    0.242E-05
DAV:  19    -0.137958599273E+04   -0.37093E-07   -0.12322E-09  3072   0.609E-05    0.232E-05
DAV:  20    -0.137958599274E+04   -0.86729E-08   -0.14155E-10  3136   0.409E-05
  11 F= -.13988440E+04 E0= -.13988440E+04  d E =-.851105E-03  mag=    -0.0000
       N       E                     dE             d eps       ncg     rms          rms(c)
DAV:   1    -0.137958533649E+04    0.65624E-03   -0.54863E-02  5248   0.170E-01    0.473E-02
DAV:   2    -0.137958538947E+04   -0.52982E-04   -0.74177E-04  6240   0.247E-02    0.307E-02
DAV:   3    -0.137958538947E+04    0.16880E-08   -0.53671E-05  6208   0.977E-03    0.166E-02
DAV:   4    -0.137958539094E+04   -0.14677E-05   -0.17456E-05  5440   0.653E-03    0.617E-03
DAV:   5    -0.137958539048E+04    0.46242E-06   -0.73243E-06  6560   0.359E-03    0.275E-03
DAV:   6    -0.137958539042E+04    0.55516E-07   -0.10145E-06  5632   0.137E-03    0.160E-03
DAV:   7    -0.137958539038E+04    0.40294E-07   -0.19996E-07  6544   0.838E-04    0.801E-04
DAV:   8    -0.137958539050E+04   -0.11492E-06   -0.87430E-08  5376   0.621E-04    0.454E-04
DAV:   9    -0.137958539074E+04   -0.23958E-06   -0.73200E-08  5408   0.538E-04    0.262E-04
DAV:  10    -0.137958539100E+04   -0.26191E-06   -0.53444E-08  4992   0.401E-04    0.192E-04
DAV:  11    -0.137958539121E+04   -0.21122E-06   -0.15437E-08  3872   0.219E-04    0.120E-04
DAV:  12    -0.137958539140E+04   -0.18839E-06   -0.81450E-09  3296   0.168E-04    0.730E-05
DAV:  13    -0.137958539154E+04   -0.14657E-06   -0.11469E-08  3680   0.138E-04    0.492E-05
DAV:  14    -0.137958539163E+04   -0.85522E-07   -0.53872E-09  3200   0.965E-05    0.330E-05
DAV:  15    -0.137958539167E+04   -0.38679E-07   -0.33319E-09  3168   0.843E-05    0.233E-05
DAV:  16    -0.137958539170E+04   -0.31359E-07   -0.34374E-09  3136   0.924E-05    0.151E-05
DAV:  17    -0.137958539171E+04   -0.77707E-08   -0.12479E-09  3072   0.626E-05
  12 F= -.13988431E+04 E0= -.13988431E+04  d E =0.895478E-03  mag=     0.0000
       N       E                     dE             d eps       ncg     rms          rms(c)
DAV:   1    -0.137958554352E+04   -0.15182E-03   -0.56289E-02  5248   0.176E-01    0.655E-02
DAV:   2    -0.137958559067E+04   -0.47151E-04   -0.16283E-03  6336   0.382E-02    0.423E-02
DAV:   3    -0.137958557569E+04    0.14974E-04   -0.12901E-04  6400   0.146E-02    0.245E-02
DAV:   4    -0.137958556801E+04    0.76863E-05   -0.53292E-05  5536   0.106E-02    0.955E-03
DAV:   5    -0.137958556587E+04    0.21366E-05   -0.17522E-05  6560   0.577E-03    0.474E-03
DAV:   6    -0.137958556529E+04    0.57698E-06   -0.39043E-06  5984   0.250E-03    0.303E-03
DAV:   7    -0.137958556475E+04    0.54749E-06   -0.87293E-07  6304   0.175E-03    0.136E-03
DAV:   8    -0.137958556483E+04   -0.88141E-07   -0.38567E-07  6128   0.134E-03    0.917E-04
DAV:   9    -0.137958556540E+04   -0.56239E-06   -0.30419E-07  6368   0.112E-03    0.468E-04
DAV:  10    -0.137958556607E+04   -0.67741E-06   -0.19007E-07  5728   0.781E-04    0.434E-04
DAV:  11    -0.137958556672E+04   -0.64238E-06   -0.62681E-08  4768   0.444E-04    0.246E-04
DAV:  12    -0.137958556731E+04   -0.59113E-06   -0.30328E-08  4160   0.334E-04    0.145E-04
DAV:  13    -0.137958556775E+04   -0.44746E-06   -0.33201E-08  4384   0.245E-04    0.965E-05
DAV:  14    -0.137958556803E+04   -0.27608E-06   -0.10536E-08  3648   0.109E-04    0.632E-05
DAV:  15    -0.137958556819E+04   -0.16321E-06   -0.35863E-09  3232   0.614E-05    0.384E-05
DAV:  16    -0.137958556833E+04   -0.13737E-06   -0.52754E-09  3264   0.751E-05    0.283E-05
DAV:  17    -0.137958556837E+04   -0.42477E-07   -0.20980E-09  3136   0.715E-05    0.220E-05
DAV:  18    -0.137958556840E+04   -0.24680E-07   -0.14654E-09  3072   0.574E-05    0.106E-05
DAV:  19    -0.137958556840E+04   -0.66793E-08   -0.15905E-10  3136   0.358E-05
  13 F= -.13988425E+04 E0= -.13988425E+04  d E =0.692161E-03  mag=    -0.0000
       N       E                     dE             d eps       ncg     rms          rms(c)
DAV:   1    -0.137958534996E+04    0.21844E-03   -0.66063E-02  5248   0.199E-01    0.786E-02
DAV:   2    -0.137958541791E+04   -0.67948E-04   -0.17465E-03  6080   0.387E-02    0.530E-02
DAV:   3    -0.137958539792E+04    0.19990E-04   -0.16797E-04  6304   0.169E-02    0.289E-02
DAV:   4    -0.137958539452E+04    0.33968E-05   -0.54056E-05  5536   0.107E-02    0.101E-02
DAV:   5    -0.137958539280E+04    0.17190E-05   -0.20246E-05  6368   0.583E-03    0.457E-03
DAV:   6    -0.137958539258E+04    0.21573E-06   -0.28485E-06  5664   0.210E-03    0.269E-03
DAV:   7    -0.137958539266E+04   -0.73516E-07   -0.58587E-07  6192   0.142E-03    0.128E-03
DAV:   8    -0.137958539303E+04   -0.37416E-06   -0.22447E-07  5760   0.100E-03    0.822E-04
DAV:   9    -0.137958539368E+04   -0.64369E-06   -0.22094E-07  6208   0.978E-04    0.454E-04
DAV:  10    -0.137958539426E+04   -0.58077E-06   -0.17032E-07  5408   0.714E-04    0.386E-04
DAV:  11    -0.137958539474E+04   -0.48018E-06   -0.61576E-08  4864   0.414E-04    0.228E-04
DAV:  12    -0.137958539520E+04   -0.46311E-06   -0.19012E-08  3648   0.293E-04    0.126E-04
DAV:  13    -0.137958539560E+04   -0.39986E-06   -0.32683E-08  4320   0.252E-04    0.977E-05
DAV:  14    -0.137958539581E+04   -0.20997E-06   -0.12296E-08  3840   0.116E-04    0.820E-05
DAV:  15    -0.137958539595E+04   -0.13696E-06   -0.21272E-09  3072   0.566E-05    0.468E-05
DAV:  16    -0.137958539612E+04   -0.17611E-06   -0.60978E-09  3296   0.712E-05    0.288E-05
DAV:  17    -0.137958539618E+04   -0.60696E-07   -0.16942E-09  3136   0.589E-05    0.242E-05
DAV:  18    -0.137958539623E+04   -0.49637E-07   -0.15906E-09  3072   0.576E-05    0.127E-05
DAV:  19    -0.137958539625E+04   -0.16138E-07   -0.44855E-10  3136   0.451E-05    0.105E-05
DAV:  20    -0.137958539626E+04   -0.63010E-08    0.29361E-10  3008   0.247E-05
  14 F= -.13988431E+04 E0= -.13988431E+04  d E =-.683533E-03  mag=     0.0000
       N       E                     dE             d eps       ncg     rms          rms(c)
DAV:   1    -0.137958509198E+04    0.30427E-03   -0.77776E-02  4544   0.156E-01    0.106E-01
DAV:   2    -0.137958501770E+04    0.74284E-04   -0.87922E-04  4768   0.172E-02    0.626E-02
DAV:   3    -0.137958500035E+04    0.17345E-04   -0.47785E-04  5312   0.121E-02    0.200E-02
DAV:   4    -0.137958499075E+04    0.96045E-05   -0.53038E-05  4736   0.428E-03    0.123E-02
DAV:   5    -0.137958499008E+04    0.66905E-06   -0.17762E-05  5088   0.248E-03    0.260E-03
DAV:   6    -0.137958499037E+04   -0.29680E-06   -0.15046E-06  4896   0.782E-04    0.113E-03
DAV:   7    -0.137958499081E+04   -0.43685E-06   -0.28846E-07  4624   0.336E-04    0.833E-04
DAV:   8    -0.137958499125E+04   -0.43951E-06   -0.58247E-08  3744   0.173E-04    0.282E-04
DAV:   9    -0.137958499167E+04   -0.42400E-06   -0.31884E-08  3776   0.113E-04    0.211E-04
DAV:  10    -0.137958499206E+04   -0.38897E-06   -0.12250E-08  3616   0.991E-05    0.968E-05
DAV:  11    -0.137958499235E+04   -0.28562E-06   -0.99136E-09  3456   0.878E-05    0.848E-05
DAV:  12    -0.137958499255E+04   -0.20556E-06   -0.63703E-09  3360   0.811E-05    0.503E-05
DAV:  13    -0.137958499273E+04   -0.17602E-06   -0.71238E-09  3424   0.740E-05    0.373E-05
DAV:  14    -0.137958499280E+04   -0.70446E-07   -0.18205E-09  3072   0.530E-05    0.208E-05
DAV:  15    -0.137958499286E+04   -0.60274E-07   -0.21817E-09  3168   0.498E-05    0.201E-05
DAV:  16    -0.137958499287E+04   -0.11947E-07   -0.23845E-10  3136   0.360E-05    0.134E-05
DAV:  17    -0.137958499288E+04   -0.10521E-07    0.27340E-10  3040   0.232E-05    0.104E-05
DAV:  18    -0.137958499289E+04   -0.68248E-08    0.43989E-10  3072   0.177E-05
  15 F= -.13988428E+04 E0= -.13988428E+04  d E =0.308829E-03  mag=    -0.0000
       N       E                     dE             d eps       ncg     rms          rms(c)
DAV:   1    -0.137958448030E+04    0.51259E-03   -0.72546E-02  4480   0.153E-01    0.779E-02
DAV:   2    -0.137958449656E+04   -0.16263E-04   -0.45762E-04  4800   0.113E-02    0.470E-02
DAV:   3    -0.137958449633E+04    0.22909E-06   -0.85792E-05  5536   0.550E-03    0.632E-03
DAV:   4    -0.137958449596E+04    0.36726E-06   -0.84940E-06  4896   0.178E-03    0.403E-03
DAV:   5    -0.137958449600E+04   -0.32291E-07   -0.38953E-06  4736   0.116E-03    0.131E-03
DAV:   6    -0.137958449619E+04   -0.19583E-06   -0.42524E-07  4224   0.408E-04    0.688E-04
DAV:   7    -0.137958449656E+04   -0.36604E-06   -0.73542E-08  3904   0.196E-04    0.264E-04
DAV:   8    -0.137958449688E+04   -0.32224E-06   -0.21180E-08  3776   0.101E-04    0.166E-04
DAV:   9    -0.137958449728E+04   -0.40418E-06   -0.14898E-08  3680   0.915E-05    0.869E-05
DAV:  10    -0.137958449757E+04   -0.28903E-06   -0.12424E-08  3568   0.969E-05    0.618E-05
DAV:  11    -0.137958449775E+04   -0.17443E-06   -0.71847E-09  3360   0.968E-05    0.487E-05
DAV:  12    -0.137958449788E+04   -0.13562E-06   -0.63325E-09  3376   0.822E-05    0.294E-05
DAV:  13    -0.137958449797E+04   -0.85653E-07   -0.39307E-09  3104   0.623E-05    0.184E-05
DAV:  14    -0.137958449800E+04   -0.27794E-07   -0.14645E-09  3072   0.500E-05    0.149E-05
DAV:  15    -0.137958449801E+04   -0.13591E-07   -0.43953E-10  3072   0.339E-05    0.906E-06
DAV:  16    -0.137958449802E+04   -0.95897E-08    0.85083E-11  3072   0.224E-05
  16 F= -.13988423E+04 E0= -.13988423E+04  d E =0.555011E-03  mag=    -0.0000
       N       E                     dE             d eps       ncg     rms          rms(c)
DAV:   1    -0.137958498646E+04   -0.48845E-03   -0.79777E-02  5056   0.178E-01    0.115E-01
DAV:   2    -0.137958490605E+04    0.80415E-04   -0.12940E-03  5152   0.227E-02    0.695E-02
DAV:   3    -0.137958487858E+04    0.27467E-04   -0.67592E-04  5248   0.143E-02    0.256E-02
DAV:   4    -0.137958486306E+04    0.15524E-04   -0.80004E-05  4864   0.514E-03    0.147E-02
DAV:   5    -0.137958486224E+04    0.81967E-06   -0.25326E-05  5088   0.286E-03    0.252E-03
DAV:   6    -0.137958486238E+04   -0.13811E-06   -0.16462E-06  4768   0.861E-04    0.107E-03
DAV:   7    -0.137958486259E+04   -0.21796E-06   -0.25463E-07  4640   0.316E-04    0.612E-04
DAV:   8    -0.137958486287E+04   -0.27275E-06   -0.49095E-08  3744   0.162E-04    0.229E-04
DAV:   9    -0.137958486315E+04   -0.28123E-06   -0.16033E-08  3552   0.969E-05    0.150E-04
DAV:  10    -0.137958486351E+04   -0.36252E-06   -0.16441E-08  3696   0.956E-05    0.832E-05
DAV:  11    -0.137958486370E+04   -0.19275E-06   -0.68709E-09  3296   0.882E-05    0.592E-05
DAV:  12    -0.137958486388E+04   -0.17410E-06   -0.72723E-09  3376   0.900E-05    0.478E-05
DAV:  13    -0.137958486398E+04   -0.10709E-06   -0.41571E-09  3200   0.701E-05    0.342E-05
DAV:  14    -0.137958486406E+04   -0.77198E-07   -0.24598E-09  3136   0.551E-05    0.212E-05
DAV:  15    -0.137958486409E+04   -0.29147E-07   -0.98460E-10  3072   0.470E-05    0.174E-05
DAV:  16    -0.137958486410E+04   -0.12180E-07   -0.95736E-11  3072   0.309E-05    0.102E-05
DAV:  17    -0.137958486412E+04   -0.13897E-07    0.23286E-10  3072   0.226E-05    0.103E-05
DAV:  18    -0.137958486412E+04   -0.56752E-08    0.42655E-10  3072   0.150E-05
  17 F= -.13988427E+04 E0= -.13988427E+04  d E =-.426844E-03  mag=     0.0000
       N       E                     dE             d eps       ncg     rms          rms(c)
DAV:   1    -0.137958544149E+04   -0.57737E-03   -0.77829E-02  4992   0.176E-01    0.108E-01
DAV:   2    -0.137958536254E+04    0.78949E-04   -0.85717E-04  5248   0.193E-02    0.622E-02
DAV:   3    -0.137958534544E+04    0.17102E-04   -0.45020E-04  5312   0.128E-02    0.193E-02
DAV:   4    -0.137958533704E+04    0.83987E-05   -0.50765E-05  5024   0.457E-03    0.121E-02
DAV:   5    -0.137958533663E+04    0.41218E-06   -0.15923E-05  5760   0.263E-03    0.257E-03
DAV:   6    -0.137958533678E+04   -0.15847E-06   -0.12006E-06  5088   0.839E-04    0.108E-03
DAV:   7    -0.137958533698E+04   -0.19569E-06   -0.24461E-07  4992   0.346E-04    0.722E-04
DAV:   8    -0.137958533722E+04   -0.24200E-06   -0.39951E-08  3776   0.160E-04    0.290E-04
DAV:   9    -0.137958533743E+04   -0.20966E-06   -0.18402E-08  3648   0.108E-04    0.153E-04
DAV:  10    -0.137958533762E+04   -0.18731E-06   -0.51151E-09  3264   0.719E-05    0.100E-04
DAV:  11    -0.137958533779E+04   -0.17040E-06   -0.44418E-09  3264   0.632E-05    0.664E-05
DAV:  12    -0.137958533792E+04   -0.13337E-06   -0.41284E-09  3264   0.669E-05    0.434E-05
DAV:  13    -0.137958533801E+04   -0.92012E-07   -0.29003E-09  3264   0.570E-05    0.472E-05
DAV:  14    -0.137958533807E+04   -0.51252E-07   -0.10601E-09  3072   0.459E-05    0.269E-05
DAV:  15    -0.137958533810E+04   -0.35434E-07   -0.12778E-09  3072   0.491E-05    0.238E-05
DAV:  16    -0.137958533811E+04   -0.76689E-08   -0.23897E-11  3072   0.368E-05
  18 F= -.13988431E+04 E0= -.13988431E+04  d E =-.408026E-03  mag=    -0.0000
       N       E                     dE             d eps       ncg     rms          rms(c)
DAV:   1    -0.137958503911E+04    0.29899E-03   -0.77605E-02  5056   0.174E-01    0.109E-01
DAV:   2    -0.137958495779E+04    0.81319E-04   -0.88669E-04  5136   0.197E-02    0.615E-02
DAV:   3    -0.137958494193E+04    0.15859E-04   -0.44270E-04  5312   0.124E-02    0.201E-02
DAV:   4    -0.137958493392E+04    0.80042E-05   -0.45761E-05  5408   0.424E-03    0.127E-02
DAV:   5    -0.137958493305E+04    0.87317E-06   -0.17164E-05  5632   0.254E-03    0.243E-03
DAV:   6    -0.137958493311E+04   -0.61758E-07   -0.13022E-06  4928   0.806E-04    0.108E-03
DAV:   7    -0.137958493323E+04   -0.11336E-06   -0.28212E-07  4800   0.350E-04    0.775E-04
DAV:   8    -0.137958493332E+04   -0.94878E-07   -0.64204E-08  3872   0.188E-04    0.229E-04
DAV:   9    -0.137958493340E+04   -0.80865E-07   -0.15703E-08  3744   0.108E-04    0.161E-04
DAV:  10    -0.137958493348E+04   -0.75233E-07   -0.32893E-09  3168   0.786E-05    0.744E-05
DAV:  11    -0.137958493355E+04   -0.71828E-07   -0.35133E-09  3232   0.810E-05    0.504E-05
DAV:  12    -0.137958493360E+04   -0.50160E-07   -0.25854E-09  3104   0.852E-05    0.322E-05
DAV:  13    -0.137958493366E+04   -0.57844E-07   -0.33845E-09  3264   0.712E-05    0.313E-05
DAV:  14    -0.137958493368E+04   -0.20897E-07   -0.63643E-10  3072   0.457E-05    0.228E-05
DAV:  15    -0.137958493370E+04   -0.21450E-07   -0.50210E-10  3072   0.372E-05    0.192E-05
DAV:  16    -0.137958493372E+04   -0.16124E-07   -0.43411E-11  3072   0.326E-05    0.136E-05
DAV:  17    -0.137958493372E+04   -0.53988E-08    0.31383E-10  2816   0.195E-05
  19 F= -.13988426E+04 E0= -.13988426E+04  d E =0.494176E-03  mag=     0.0000
       N       E                     dE             d eps       ncg     rms          rms(c)
DAV:   1    -0.137958550858E+04   -0.57486E-03   -0.75905E-02  5120   0.184E-01    0.977E-02
DAV:   2    -0.137958549043E+04    0.18148E-04   -0.93221E-04  5344   0.201E-02    0.594E-02
DAV:   3    -0.137958548098E+04    0.94484E-05   -0.42388E-04  5504   0.129E-02    0.192E-02
DAV:   4    -0.137958547319E+04    0.77917E-05   -0.52254E-05  5344   0.443E-03    0.127E-02
DAV:   5    -0.137958547156E+04    0.16334E-05   -0.21750E-05  5280   0.281E-03    0.255E-03
DAV:   6    -0.137958547182E+04   -0.26658E-06   -0.17383E-06  4896   0.890E-04    0.110E-03
DAV:   7    -0.137958547206E+04   -0.23219E-06   -0.38929E-07  4992   0.435E-04    0.769E-04
DAV:   8    -0.137958547232E+04   -0.26074E-06   -0.92756E-08  4000   0.247E-04    0.279E-04
DAV:   9    -0.137958547255E+04   -0.23114E-06   -0.28371E-08  4064   0.152E-04    0.192E-04
DAV:  10    -0.137958547278E+04   -0.23430E-06   -0.95615E-09  3520   0.114E-04    0.101E-04
DAV:  11    -0.137958547295E+04   -0.17059E-06   -0.79376E-09  3424   0.960E-05    0.648E-05
DAV:  12    -0.137958547308E+04   -0.12864E-06   -0.59258E-09  3296   0.966E-05    0.391E-05
DAV:  13    -0.137958547316E+04   -0.74317E-07   -0.43247E-09  3200   0.901E-05    0.305E-05
DAV:  14    -0.137958547320E+04   -0.40149E-07   -0.24296E-09  3072   0.726E-05    0.216E-05
DAV:  15    -0.137958547322E+04   -0.26208E-07   -0.12886E-09  3072   0.499E-05    0.160E-05
DAV:  16    -0.137958547324E+04   -0.17099E-07   -0.49727E-10  3072   0.352E-05    0.102E-05
DAV:  17    -0.137958547325E+04   -0.67084E-08    0.39080E-11  3072   0.251E-05
  20 F= -.13988433E+04 E0= -.13988433E+04  d E =-.659076E-03  mag=    -0.0000
       N       E                     dE             d eps       ncg     rms          rms(c)
DAV:   1    -0.137958505963E+04    0.41361E-03   -0.77754E-02  4352   0.177E-01    0.107E-01
DAV:   2    -0.137958498882E+04    0.70803E-04   -0.88008E-04  4528   0.197E-02    0.628E-02
DAV:   3    -0.137958497581E+04    0.13009E-04   -0.53704E-04  4864   0.139E-02    0.219E-02
DAV:   4    -0.137958496509E+04    0.10729E-04   -0.53994E-05  4640   0.463E-03    0.144E-02
DAV:   5    -0.137958496330E+04    0.17899E-05   -0.24845E-05  4800   0.298E-03    0.285E-03
DAV:   6    -0.137958496333E+04   -0.29890E-07   -0.19987E-06  4576   0.986E-04    0.127E-03
DAV:   7    -0.137958496342E+04   -0.96959E-07   -0.30964E-07  4672   0.358E-04    0.113E-03
DAV:   8    -0.137958496355E+04   -0.12451E-06   -0.90513E-08  4032   0.265E-04    0.285E-04
DAV:   9    -0.137958496365E+04   -0.10573E-06   -0.41637E-08  4416   0.181E-04    0.319E-04
DAV:  10    -0.137958496375E+04   -0.94355E-07   -0.11269E-08  3664   0.112E-04    0.912E-05
DAV:  11    -0.137958496383E+04   -0.83543E-07   -0.48779E-09  3296   0.894E-05    0.748E-05
DAV:  12    -0.137958496390E+04   -0.72483E-07   -0.45657E-09  3296   0.887E-05    0.479E-05
DAV:  13    -0.137958496395E+04   -0.46086E-07   -0.30658E-09  3120   0.784E-05    0.319E-05
DAV:  14    -0.137958496398E+04   -0.32451E-07   -0.21161E-09  3120   0.617E-05    0.190E-05
DAV:  15    -0.137958496400E+04   -0.21333E-07   -0.95122E-10  3072   0.430E-05    0.232E-05
DAV:  16    -0.137958496402E+04   -0.14377E-07   -0.10843E-10  3072   0.307E-05    0.133E-05
DAV:  17    -0.137958496403E+04   -0.82800E-08    0.14506E-10  3072   0.233E-05
  21 F= -.13988428E+04 E0= -.13988428E+04  d E =0.480227E-03  mag=    -0.0000
       N       E                     dE             d eps       ncg     rms          rms(c)
DAV:   1    -0.137958465384E+04    0.31018E-03   -0.72940E-02  4512   0.172E-01    0.791E-02
DAV:   2    -0.137958467346E+04   -0.19620E-04   -0.47719E-04  4688   0.127E-02    0.483E-02
DAV:   3    -0.137958467100E+04    0.24515E-05   -0.88192E-05  4448   0.594E-03    0.602E-03
DAV:   4    -0.137958467075E+04    0.25141E-06   -0.92363E-06  4608   0.176E-03    0.417E-03
DAV:   5    -0.137958467075E+04   -0.26193E-09   -0.38743E-06  4320   0.117E-03    0.139E-03
DAV:   6    -0.137958467103E+04   -0.27393E-06   -0.37573E-07  3968   0.390E-04    0.729E-04
DAV:   7    -0.137958467156E+04   -0.53299E-06   -0.99711E-08  3968   0.223E-04    0.274E-04
DAV:   8    -0.137958467199E+04   -0.42560E-06   -0.29088E-08  3904   0.119E-04    0.185E-04
DAV:   9    -0.137958467255E+04   -0.56956E-06   -0.30965E-08  3968   0.116E-04    0.916E-05
DAV:  10    -0.137958467286E+04   -0.30857E-06   -0.13822E-08  3712   0.870E-05    0.702E-05
DAV:  11    -0.137958467309E+04   -0.22798E-06   -0.81551E-09  3456   0.884E-05    0.507E-05
DAV:  12    -0.137958467323E+04   -0.13903E-06   -0.57586E-09  3296   0.878E-05    0.321E-05
DAV:  13    -0.137958467331E+04   -0.83179E-07   -0.31362E-09  3072   0.658E-05    0.222E-05
DAV:  14    -0.137958467336E+04   -0.45635E-07   -0.18783E-09  3072   0.492E-05    0.160E-05
DAV:  15    -0.137958467338E+04   -0.17099E-07   -0.31376E-10  3072   0.366E-05    0.977E-06
DAV:  16    -0.137958467339E+04   -0.10928E-07    0.13694E-10  3072   0.219E-05    0.962E-06
DAV:  17    -0.137958467339E+04   -0.41910E-08    0.51249E-10  3040   0.147E-05
  22 F= -.13988424E+04 E0= -.13988424E+04  d E =0.438707E-03  mag=     0.0000
       N       E                     dE             d eps       ncg     rms          rms(c)
DAV:   1    -0.137958565371E+04   -0.98032E-03   -0.76657E-02  5152   0.186E-01    0.101E-01
DAV:   2    -0.137958562276E+04    0.30951E-04   -0.10092E-03  5536   0.217E-02    0.618E-02
DAV:   3    -0.137958560044E+04    0.22318E-04   -0.52900E-04  5632   0.151E-02    0.219E-02
DAV:   4    -0.137958559102E+04    0.94127E-05   -0.56298E-05  5408   0.489E-03    0.144E-02
DAV:   5    -0.137958558870E+04    0.23238E-05   -0.27651E-05  5216   0.321E-03    0.260E-03
DAV:   6    -0.137958558890E+04   -0.19530E-06   -0.15575E-06  5312   0.101E-03    0.119E-03
DAV:   7    -0.137958558913E+04   -0.23382E-06   -0.29633E-07  4864   0.367E-04    0.790E-04
DAV:   8    -0.137958558946E+04   -0.33433E-06   -0.55617E-08  4096   0.245E-04    0.331E-04
DAV:   9    -0.137958558980E+04   -0.33931E-06   -0.39190E-08  4096   0.196E-04    0.203E-04
DAV:  10    -0.137958559014E+04   -0.33701E-06   -0.14885E-08  3680   0.142E-04    0.138E-04
DAV:  11    -0.137958559040E+04   -0.26208E-06   -0.12069E-08  3680   0.135E-04    0.870E-05
DAV:  12    -0.137958559062E+04   -0.22119E-06   -0.12459E-08  3680   0.142E-04    0.560E-05
DAV:  13    -0.137958559074E+04   -0.11940E-06   -0.92000E-09  3456   0.153E-04    0.531E-05
DAV:  14    -0.137958559081E+04   -0.68074E-07   -0.73238E-09  3424   0.150E-04    0.276E-05
DAV:  15    -0.137958559085E+04   -0.34794E-07   -0.35667E-09  3200   0.104E-04    0.227E-05
DAV:  16    -0.137958559086E+04   -0.16167E-07   -0.59019E-10  3072   0.476E-05    0.166E-05
DAV:  17    -0.137958559087E+04   -0.12282E-07   -0.46681E-11  3072   0.291E-05    0.152E-05
DAV:  18    -0.137958559088E+04   -0.59226E-08    0.56039E-10  3072   0.203E-05
  23 F= -.13988433E+04 E0= -.13988433E+04  d E =-.967843E-03  mag=     0.0000
       N       E                     dE             d eps       ncg     rms          rms(c)
DAV:   1    -0.137958518948E+04    0.40139E-03   -0.77811E-02  5120   0.179E-01    0.108E-01
DAV:   2    -0.137958509827E+04    0.91209E-04   -0.86372E-04  5280   0.218E-02    0.614E-02
DAV:   3    -0.137958508057E+04    0.17699E-04   -0.45308E-04  5760   0.140E-02    0.196E-02
DAV:   4    -0.137958507197E+04    0.85998E-05   -0.58659E-05  5696   0.513E-03    0.116E-02
DAV:   5    -0.137958507172E+04    0.25798E-06   -0.16134E-05  6048   0.296E-03    0.229E-03
DAV:   6    -0.137958507174E+04   -0.26484E-07   -0.10100E-06  5504   0.973E-04    0.118E-03
DAV:   7    -0.137958507172E+04    0.22512E-07   -0.15011E-07  5152   0.326E-04    0.700E-04
DAV:   8    -0.137958507175E+04   -0.26033E-07   -0.31646E-08  4064   0.269E-04    0.283E-04
DAV:   9    -0.137958507178E+04   -0.36671E-07   -0.17685E-08  4032   0.192E-04    0.154E-04
DAV:  10    -0.137958507184E+04   -0.62020E-07   -0.76039E-09  3424   0.142E-04    0.111E-04
DAV:  11    -0.137958507191E+04   -0.61831E-07   -0.41003E-09  3232   0.135E-04    0.805E-05
DAV:  12    -0.137958507198E+04   -0.73225E-07   -0.81064E-09  3360   0.165E-04    0.524E-05
DAV:  13    -0.137958507202E+04   -0.42637E-07   -0.65656E-09  3296   0.125E-04    0.574E-05
DAV:  14    -0.137958507204E+04   -0.18612E-07   -0.21840E-09  3104   0.739E-05    0.377E-05
DAV:  15    -0.137958507206E+04   -0.18248E-07   -0.11745E-09  3072   0.572E-05    0.220E-05
DAV:  16    -0.137958507208E+04   -0.18103E-07   -0.80668E-10  3072   0.489E-05    0.210E-05
DAV:  17    -0.137958507208E+04   -0.78144E-08    0.16813E-10  2944   0.248E-05
  24 F= -.13988429E+04 E0= -.13988429E+04  d E =0.434999E-03  mag=    -0.0000
       N       E                     dE             d eps       ncg     rms          rms(c)
DAV:   1    -0.137958489411E+04    0.17796E-03   -0.73800E-02  5312   0.176E-01    0.812E-02
DAV:   2    -0.137958490364E+04   -0.95234E-05   -0.55841E-04  5728   0.158E-02    0.482E-02
DAV:   3    -0.137958489601E+04    0.76247E-05   -0.10588E-04  5728   0.725E-03    0.756E-03
DAV:   4    -0.137958489537E+04    0.63740E-06   -0.11551E-05  5536   0.248E-03    0.413E-03
DAV:   5    -0.137958489514E+04    0.23271E-06   -0.39225E-06  5440   0.143E-03    0.140E-03
DAV:   6    -0.137958489519E+04   -0.48982E-07   -0.50168E-07  5056   0.568E-04    0.723E-04
DAV:   7    -0.137958489525E+04   -0.62428E-07   -0.76665E-08  4384   0.229E-04    0.324E-04
DAV:   8    -0.137958489535E+04   -0.96639E-07   -0.13938E-08  3584   0.130E-04    0.169E-04
DAV:   9    -0.137958489552E+04   -0.17211E-06   -0.13183E-08  3712   0.137E-04    0.117E-04
DAV:  10    -0.137958489565E+04   -0.12538E-06   -0.63398E-09  3328   0.105E-04    0.718E-05
DAV:  11    -0.137958489577E+04   -0.12630E-06   -0.65705E-09  3328   0.101E-04    0.604E-05
DAV:  12    -0.137958489584E+04   -0.66648E-07   -0.31072E-09  3200   0.912E-05    0.463E-05
DAV:  13    -0.137958489591E+04   -0.72643E-07   -0.36649E-09  3200   0.892E-05    0.385E-05
DAV:  14    -0.137958489595E+04   -0.40105E-07   -0.16052E-09  3072   0.657E-05    0.274E-05
DAV:  15    -0.137958489597E+04   -0.18830E-07   -0.50922E-10  3072   0.409E-05    0.154E-05
DAV:  16    -0.137958489599E+04   -0.13999E-07   -0.11170E-11  3072   0.313E-05    0.134E-05
DAV:  17    -0.137958489599E+04   -0.92114E-08    0.30285E-10  3072   0.204E-05
  25 F= -.13988426E+04 E0= -.13988426E+04  d E =0.274112E-03  mag=     0.0000
       N       E                     dE             d eps       ncg     rms          rms(c)
DAV:   1    -0.137958466278E+04    0.23321E-03   -0.83116E-02  5184   0.192E-01    0.129E-01
DAV:   2    -0.137958453566E+04    0.12712E-03   -0.17122E-03  5312   0.299E-02    0.769E-02
DAV:   3    -0.137958449135E+04    0.44312E-04   -0.10715E-03  5664   0.213E-02    0.299E-02
DAV:   4    -0.137958447317E+04    0.18180E-04   -0.13422E-04  5472   0.725E-03    0.205E-02
DAV:   5    -0.137958446880E+04    0.43639E-05   -0.42318E-05  5504   0.421E-03    0.520E-03
DAV:   6    -0.137958446859E+04    0.20846E-06   -0.50348E-06  5312   0.183E-03    0.152E-03
DAV:   7    -0.137958446876E+04   -0.16541E-06   -0.76715E-07  6144   0.683E-04    0.113E-03
DAV:   8    -0.137958446903E+04   -0.27053E-06   -0.10247E-07  4160   0.298E-04    0.530E-04
DAV:   9    -0.137958446935E+04   -0.32037E-06   -0.61963E-08  4448   0.226E-04    0.278E-04
DAV:  10    -0.137958446971E+04   -0.35625E-06   -0.20130E-08  3888   0.162E-04    0.211E-04
DAV:  11    -0.137958447005E+04   -0.34702E-06   -0.14214E-08  3616   0.141E-04    0.142E-04
DAV:  12    -0.137958447033E+04   -0.27884E-06   -0.17232E-08  3840   0.138E-04    0.848E-05
DAV:  13    -0.137958447050E+04   -0.16493E-06   -0.57294E-09  3424   0.818E-05    0.737E-05
DAV:  14    -0.137958447064E+04   -0.14680E-06   -0.58358E-09  3488   0.809E-05    0.389E-05
DAV:  15    -0.137958447069E+04   -0.48691E-07   -0.20871E-09  3072   0.682E-05    0.293E-05
DAV:  16    -0.137958447073E+04   -0.33819E-07   -0.14568E-09  3072   0.593E-05    0.167E-05
DAV:  17    -0.137958447074E+04   -0.18626E-07   -0.85975E-10  3072   0.485E-05    0.192E-05
DAV:  18    -0.137958447075E+04   -0.56170E-08    0.40082E-11  3072   0.270E-05
  26 F= -.13988422E+04 E0= -.13988422E+04  d E =0.419461E-03  mag=    -0.0000
       N       E                     dE             d eps       ncg     rms          rms(c)
DAV:   1    -0.137958538493E+04   -0.91419E-03   -0.75780E-02  4480   0.163E-01    0.963E-02
DAV:   2    -0.137958534633E+04    0.38605E-04   -0.71846E-04  4448   0.157E-02    0.581E-02
DAV:   3    -0.137958533678E+04    0.95486E-05   -0.38020E-04  4864   0.117E-02    0.187E-02
DAV:   4    -0.137958532959E+04    0.71944E-05   -0.42316E-05  4480   0.400E-03    0.123E-02
DAV:   5    -0.137958532857E+04    0.10185E-05   -0.21681E-05  4480   0.259E-03    0.216E-03
DAV:   6    -0.137958532929E+04   -0.72656E-06   -0.11901E-06  4128   0.682E-04    0.110E-03
DAV:   7    -0.137958533016E+04   -0.87016E-06   -0.28991E-07  4000   0.305E-04    0.876E-04
DAV:   8    -0.137958533132E+04   -0.11514E-05   -0.13069E-07  4064   0.271E-04    0.242E-04
DAV:   9    -0.137958533214E+04   -0.81978E-06   -0.63520E-08  4448   0.188E-04    0.316E-04
DAV:  10    -0.137958533299E+04   -0.84974E-06   -0.44644E-08  4192   0.160E-04    0.101E-04
DAV:  11    -0.137958533341E+04   -0.42307E-06   -0.16189E-08  3712   0.129E-04    0.888E-05
DAV:  12    -0.137958533375E+04   -0.33899E-06   -0.12278E-08  3616   0.111E-04    0.516E-05
DAV:  13    -0.137958533390E+04   -0.15018E-06   -0.38233E-09  3248   0.725E-05    0.373E-05
DAV:  14    -0.137958533407E+04   -0.17259E-06   -0.61548E-09  3488   0.736E-05    0.253E-05
DAV:  15    -0.137958533411E+04   -0.35347E-07   -0.94402E-10  3072   0.556E-05    0.223E-05
DAV:  16    -0.137958533414E+04   -0.31068E-07   -0.67151E-11  3040   0.330E-05    0.162E-05
DAV:  17    -0.137958533416E+04   -0.26092E-07    0.70466E-11  3040   0.264E-05    0.122E-05
DAV:  18    -0.137958533417E+04   -0.50059E-08    0.44159E-10  3008   0.159E-05
  27 F= -.13988431E+04 E0= -.13988431E+04  d E =-.889344E-03  mag=    -0.0000
       N       E                     dE             d eps       ncg     rms          rms(c)
DAV:   1    -0.137958527905E+04    0.55108E-04   -0.74549E-02  4416   0.165E-01    0.915E-02
DAV:   2    -0.137958525498E+04    0.24074E-04   -0.65591E-04  4256   0.151E-02    0.541E-02
DAV:   3    -0.137958525013E+04    0.48470E-05   -0.26276E-04  5248   0.961E-03    0.149E-02
DAV:   4    -0.137958524559E+04    0.45482E-05   -0.26606E-05  4704   0.326E-03    0.940E-03
DAV:   5    -0.137958524532E+04    0.26711E-06   -0.14000E-05  4768   0.234E-03    0.164E-03
DAV:   6    -0.137958524573E+04   -0.41288E-06   -0.86264E-07  4256   0.638E-04    0.988E-04
DAV:   7    -0.137958524626E+04   -0.52722E-06   -0.12719E-07  3968   0.271E-04    0.505E-04
DAV:   8    -0.137958524677E+04   -0.51284E-06   -0.40466E-08  3936   0.160E-04    0.249E-04
DAV:   9    -0.137958524725E+04   -0.48304E-06   -0.23395E-08  3856   0.135E-04    0.147E-04
DAV:  10    -0.137958524765E+04   -0.39859E-06   -0.16309E-08  3776   0.144E-04    0.122E-04
DAV:  11    -0.137958524790E+04   -0.25204E-06   -0.11219E-08  3616   0.129E-04    0.667E-05
DAV:  12    -0.137958524808E+04   -0.17066E-06   -0.65587E-09  3456   0.947E-05    0.536E-05
DAV:  13    -0.137958524818E+04   -0.10341E-06   -0.29686E-09  3104   0.697E-05    0.358E-05
DAV:  14    -0.137958524823E+04   -0.55734E-07   -0.20641E-09  3072   0.684E-05    0.186E-05
DAV:  15    -0.137958524827E+04   -0.31694E-07   -0.10924E-09  3072   0.549E-05    0.153E-05
DAV:  16    -0.137958524828E+04   -0.16866E-07   -0.45063E-11  3072   0.283E-05    0.147E-05
DAV:  17    -0.137958524829E+04   -0.10172E-07    0.44292E-10  3040   0.202E-05    0.782E-06
DAV:  18    -0.137958524830E+04   -0.49040E-08    0.59807E-10  2880   0.141E-05
  28 F= -.13988430E+04 E0= -.13988430E+04  d E =0.116008E-03  mag=    -0.0000
       N       E                     dE             d eps       ncg     rms          rms(c)
DAV:   1    -0.137958501573E+04    0.23256E-03   -0.74351E-02  4480   0.183E-01    0.904E-02
DAV:   2    -0.137958501579E+04   -0.52401E-07   -0.77901E-04  4640   0.171E-02    0.561E-02
DAV:   3    -0.137958499844E+04    0.17346E-04   -0.18887E-04  4576   0.884E-03    0.105E-02
DAV:   4    -0.137958499773E+04    0.71185E-06   -0.21386E-05  4704   0.269E-03    0.644E-03
DAV:   5    -0.137958499828E+04   -0.54779E-06   -0.84845E-06  4416   0.171E-03    0.192E-03
DAV:   6    -0.137958499907E+04   -0.79331E-06   -0.75702E-07  4256   0.593E-04    0.113E-03
DAV:   7    -0.137958500041E+04   -0.13372E-05   -0.21543E-07  3968   0.319E-04    0.439E-04
DAV:   8    -0.137958500144E+04   -0.10356E-05   -0.68993E-08  4096   0.155E-04    0.286E-04
DAV:   9    -0.137958500291E+04   -0.14665E-05   -0.72656E-08  4064   0.169E-04    0.153E-04
DAV:  10    -0.137958500371E+04   -0.80449E-06   -0.36612E-08  4000   0.147E-04    0.972E-05
DAV:  11    -0.137958500422E+04   -0.51012E-06   -0.19067E-08  3888   0.136E-04    0.820E-05
DAV:  12    -0.137958500462E+04   -0.39407E-06   -0.16000E-08  3856   0.138E-04    0.486E-05
DAV:  13    -0.137958500480E+04   -0.18325E-06   -0.64232E-09  3328   0.114E-04    0.280E-05
DAV:  14    -0.137958500490E+04   -0.10287E-06   -0.31499E-09  3040   0.776E-05    0.250E-05
DAV:  15    -0.137958500496E+04   -0.59212E-07   -0.16668E-09  3008   0.513E-05    0.144E-05
DAV:  16    -0.137958500499E+04   -0.24942E-07   -0.77832E-10  3008   0.415E-05    0.914E-06
DAV:  17    -0.137958500499E+04   -0.51368E-08    0.15299E-10  3136   0.255E-05
  29 F= -.13988429E+04 E0= -.13988429E+04  d E =0.768258E-04  mag=    -0.0000
       N       E                     dE             d eps       ncg     rms          rms(c)
DAV:   1    -0.137958545372E+04   -0.44873E-03   -0.77028E-02  4352   0.172E-01    0.103E-01
DAV:   2    -0.137958540375E+04    0.49975E-04   -0.89758E-04  4448   0.185E-02    0.616E-02
DAV:   3    -0.137958538891E+04    0.14839E-04   -0.50853E-04  4736   0.137E-02    0.213E-02
DAV:   4    -0.137958537852E+04    0.10388E-04   -0.52198E-05  4640   0.459E-03    0.136E-02
DAV:   5    -0.137958537685E+04    0.16685E-05   -0.24658E-05  4576   0.296E-03    0.255E-03
DAV:   6    -0.137958537723E+04   -0.37503E-06   -0.17477E-06  4576   0.912E-04    0.127E-03
DAV:   7    -0.137958537767E+04   -0.44785E-06   -0.29865E-07  4512   0.337E-04    0.109E-03
DAV:   8    -0.137958537830E+04   -0.63139E-06   -0.10625E-07  3904   0.227E-04    0.261E-04
DAV:   9    -0.137958537874E+04   -0.43938E-06   -0.35423E-08  3968   0.134E-04    0.289E-04
DAV:  10    -0.137958537922E+04   -0.48091E-06   -0.17947E-08  3680   0.116E-04    0.105E-04
DAV:  11    -0.137958537953E+04   -0.30517E-06   -0.93162E-09  3520   0.968E-05    0.981E-05
DAV:  12    -0.137958537977E+04   -0.23875E-06   -0.83570E-09  3616   0.891E-05    0.590E-05
DAV:  13    -0.137958537990E+04   -0.13162E-06   -0.39003E-09  3296   0.673E-05    0.442E-05
DAV:  14    -0.137958537999E+04   -0.93176E-07   -0.29916E-09  3168   0.576E-05    0.264E-05
DAV:  15    -0.137958538003E+04   -0.38839E-07   -0.16077E-09  3072   0.573E-05    0.262E-05
DAV:  16    -0.137958538005E+04   -0.16502E-07   -0.80959E-10  3072   0.468E-05    0.234E-05
DAV:  17    -0.137958538005E+04   -0.37689E-08   -0.31115E-11  3072   0.316E-05
  30 F= -.13988432E+04 E0= -.13988432E+04  d E =-.280333E-03  mag=     0.0000
       N       E                     dE             d eps       ncg     rms          rms(c)
DAV:   1    -0.137958468488E+04    0.69517E-03   -0.78183E-02  4352   0.173E-01    0.110E-01
DAV:   2    -0.137958460593E+04    0.78957E-04   -0.10489E-03  4608   0.210E-02    0.644E-02
DAV:   3    -0.137958458357E+04    0.22354E-04   -0.55233E-04  4736   0.143E-02    0.220E-02
DAV:   4    -0.137958457328E+04    0.10292E-04   -0.57393E-05  4640   0.475E-03    0.138E-02
DAV:   5    -0.137958457226E+04    0.10173E-05   -0.22909E-05  4736   0.285E-03    0.249E-03
DAV:   6    -0.137958457246E+04   -0.19552E-06   -0.15373E-06  4560   0.848E-04    0.117E-03
DAV:   7    -0.137958457272E+04   -0.26402E-06   -0.27437E-07  4608   0.314E-04    0.916E-04
DAV:   8    -0.137958457298E+04   -0.26212E-06   -0.63569E-08  3904   0.178E-04    0.232E-04
DAV:   9    -0.137958457320E+04   -0.21355E-06   -0.21212E-08  3680   0.111E-04    0.208E-04
DAV:  10    -0.137958457337E+04   -0.17478E-06   -0.56334E-09  3264   0.747E-05    0.894E-05
DAV:  11    -0.137958457353E+04   -0.15514E-06   -0.72895E-09  3488   0.820E-05    0.647E-05
DAV:  12    -0.137958457363E+04   -0.10397E-06   -0.45582E-09  3264   0.824E-05    0.435E-05
DAV:  13    -0.137958457370E+04   -0.70650E-07   -0.31253E-09  3264   0.672E-05    0.274E-05
DAV:  14    -0.137958457375E+04   -0.48007E-07   -0.14032E-09  3104   0.465E-05    0.173E-05
DAV:  15    -0.137958457378E+04   -0.30312E-07   -0.78084E-10  3104   0.390E-05    0.195E-05
DAV:  16    -0.137958457380E+04   -0.17055E-07   -0.15207E-10  3072   0.308E-05    0.184E-05
DAV:  17    -0.137958457381E+04   -0.97207E-08    0.33592E-10  3056   0.198E-05
  31 F= -.13988423E+04 E0= -.13988423E+04  d E =0.827166E-03  mag=     0.0000
       N       E                     dE             d eps       ncg     rms          rms(c)
DAV:   1    -0.137958500042E+04   -0.42662E-03   -0.77075E-02  4864   0.191E-01    0.102E-01
DAV:   2    -0.137958498194E+04    0.18475E-04   -0.11508E-03  5280   0.227E-02    0.631E-02
DAV:   3    -0.137958496257E+04    0.19376E-04   -0.53713E-04  5728   0.154E-02    0.218E-02
DAV:   4    -0.137958495266E+04    0.99058E-05   -0.58457E-05  5424   0.507E-03    0.142E-02
DAV:   5    -0.137958495061E+04    0.20465E-05   -0.27355E-05  5088   0.328E-03    0.261E-03
DAV:   6    -0.137958495084E+04   -0.22634E-06   -0.15662E-06  5120   0.104E-03    0.120E-03
DAV:   7    -0.137958495101E+04   -0.16921E-06   -0.34173E-07  4416   0.450E-04    0.731E-04
DAV:   8    -0.137958495125E+04   -0.24363E-06   -0.65442E-08  4032   0.258E-04    0.315E-04
DAV:   9    -0.137958495146E+04   -0.21190E-06   -0.23421E-08  3744   0.162E-04    0.173E-04
DAV:  10    -0.137958495173E+04   -0.26380E-06   -0.17084E-08  3744   0.139E-04    0.146E-04
DAV:  11    -0.137958495191E+04   -0.17683E-06   -0.78907E-09  3328   0.107E-04    0.100E-04
DAV:  12    -0.137958495209E+04   -0.18309E-06   -0.12146E-08  3616   0.115E-04    0.811E-05
DAV:  13    -0.137958495216E+04   -0.72119E-07   -0.34581E-09  3200   0.839E-05    0.582E-05
DAV:  14    -0.137958495225E+04   -0.85754E-07   -0.45961E-09  3264   0.819E-05    0.710E-05
DAV:  15    -0.137958495229E+04   -0.38912E-07   -0.16256E-09  3072   0.637E-05    0.436E-05
DAV:  16    -0.137958495231E+04   -0.20125E-07   -0.11346E-09  3072   0.518E-05    0.257E-05
DAV:  17    -0.137958495232E+04   -0.13562E-07   -0.11769E-10  3072   0.353E-05    0.237E-05
DAV:  18    -0.137958495233E+04   -0.81054E-08    0.33705E-10  3072   0.234E-05
  32 F= -.13988427E+04 E0= -.13988427E+04  d E =-.307606E-03  mag=     0.0000
       N       E                     dE             d eps       ncg     rms          rms(c)
DAV:   1    -0.137958528738E+04   -0.33507E-03   -0.77826E-02  4928   0.181E-01    0.108E-01
DAV:   2    -0.137958521181E+04    0.75579E-04   -0.91251E-04  5184   0.205E-02    0.625E-02
DAV:   3    -0.137958519341E+04    0.18395E-04   -0.48446E-04  5408   0.139E-02    0.202E-02
DAV:   4    -0.137958518400E+04    0.94081E-05   -0.52462E-05  5280   0.494E-03    0.129E-02
DAV:   5    -0.137958518294E+04    0.10585E-05   -0.19874E-05  5632   0.305E-03    0.284E-03
DAV:   6    -0.137958518311E+04   -0.16532E-06   -0.16694E-06  5408   0.102E-03    0.121E-03
DAV:   7    -0.137958518339E+04   -0.27983E-06   -0.34160E-07  5152   0.471E-04    0.854E-04
DAV:   8    -0.137958518365E+04   -0.26365E-06   -0.49756E-08  3840   0.226E-04    0.439E-04
DAV:   9    -0.137958518395E+04   -0.29968E-06   -0.30115E-08  3808   0.169E-04    0.180E-04
DAV:  10    -0.137958518419E+04   -0.24041E-06   -0.11797E-08  3520   0.118E-04    0.165E-04
DAV:  11    -0.137958518442E+04   -0.22796E-06   -0.69796E-09  3296   0.909E-05    0.873E-05
DAV:  12    -0.137958518466E+04   -0.24406E-06   -0.14265E-08  3680   0.114E-04    0.815E-05
DAV:  13    -0.137958518475E+04   -0.89058E-07   -0.36615E-09  3264   0.765E-05    0.675E-05
DAV:  14    -0.137958518484E+04   -0.89116E-07   -0.28168E-09  3168   0.632E-05    0.280E-05
DAV:  15    -0.137958518489E+04   -0.45184E-07   -0.11394E-09  3072   0.446E-05    0.326E-05
DAV:  16    -0.137958518492E+04   -0.32276E-07   -0.63185E-10  3072   0.394E-05    0.173E-05
DAV:  17    -0.137958518493E+04   -0.11671E-07   -0.16913E-10  3072   0.314E-05    0.170E-05
DAV:  18    -0.137958518494E+04   -0.76834E-08    0.29410E-10  3008   0.197E-05
  33 F= -.13988430E+04 E0= -.13988430E+04  d E =-.312047E-03  mag=     0.0000
       N       E                     dE             d eps       ncg     rms          rms(c)
DAV:   1    -0.137958493656E+04    0.24838E-03   -0.72547E-02  4864   0.178E-01    0.794E-02
DAV:   2    -0.137958494962E+04   -0.13061E-04   -0.49957E-04  5504   0.141E-02    0.480E-02
DAV:   3    -0.137958494765E+04    0.19702E-05   -0.11262E-04  5920   0.759E-03    0.841E-03
DAV:   4    -0.137958494635E+04    0.12994E-05   -0.11378E-05  5632   0.252E-03    0.532E-03
DAV:   5    -0.137958494619E+04    0.15428E-06   -0.68548E-06  4992   0.188E-03    0.169E-03
DAV:   6    -0.137958494623E+04   -0.37544E-07   -0.78818E-07  4992   0.807E-04    0.805E-04
DAV:   7    -0.137958494636E+04   -0.12918E-06   -0.84909E-08  4096   0.284E-04    0.376E-04
DAV:   8    -0.137958494654E+04   -0.18041E-06   -0.35342E-08  4160   0.219E-04    0.198E-04
DAV:   9    -0.137958494669E+04   -0.14644E-06   -0.11059E-08  3488   0.137E-04    0.119E-04
DAV:  10    -0.137958494686E+04   -0.17328E-06   -0.98047E-09  3296   0.124E-04    0.835E-05
DAV:  11    -0.137958494696E+04   -0.97920E-07   -0.65857E-09  3360   0.998E-05    0.582E-05
DAV:  12    -0.137958494705E+04   -0.93220E-07   -0.66639E-09  3328   0.104E-04    0.456E-05
DAV:  13    -0.137958494710E+04   -0.44965E-07   -0.31523E-09  3072   0.756E-05    0.404E-05
DAV:  14    -0.137958494713E+04   -0.34954E-07   -0.22588E-09  3072   0.597E-05    0.172E-05
DAV:  15    -0.137958494714E+04   -0.13475E-07   -0.81582E-10  3072   0.430E-05    0.194E-05
DAV:  16    -0.137958494715E+04   -0.62573E-08    0.18125E-10  3072   0.268E-05
  34 F= -.13988427E+04 E0= -.13988427E+04  d E =0.246848E-03  mag=     0.0000
       N       E                     dE             d eps       ncg     rms          rms(c)
DAV:   1    -0.137958509416E+04   -0.14701E-03   -0.79901E-02  4960   0.183E-01    0.115E-01
DAV:   2    -0.137958503480E+04    0.59352E-04   -0.13791E-03  5328   0.246E-02    0.697E-02
DAV:   3    -0.137958500679E+04    0.28015E-04   -0.73801E-04  5408   0.166E-02    0.255E-02
DAV:   4    -0.137958499276E+04    0.14032E-04   -0.78276E-05  5344   0.580E-03    0.163E-02
DAV:   5    -0.137958499023E+04    0.25316E-05   -0.35146E-05  5312   0.386E-03    0.290E-03
DAV:   6    -0.137958499037E+04   -0.14590E-06   -0.24632E-06  5376   0.118E-03    0.133E-03
DAV:   7    -0.137958499038E+04   -0.75670E-08   -0.42257E-07  5072   0.486E-04    0.905E-04
DAV:   8    -0.137958499044E+04   -0.63999E-07   -0.82265E-08  4000   0.258E-04    0.408E-04
DAV:   9    -0.137958499053E+04   -0.88956E-07   -0.20541E-08  3680   0.139E-04    0.190E-04
DAV:  10    -0.137958499069E+04   -0.15662E-06   -0.14289E-08  3680   0.125E-04    0.152E-04
DAV:  11    -0.137958499082E+04   -0.12910E-06   -0.81251E-09  3264   0.115E-04    0.914E-05
DAV:  12    -0.137958499096E+04   -0.14144E-06   -0.13688E-08  3520   0.136E-04    0.815E-05
DAV:  13    -0.137958499102E+04   -0.56796E-07   -0.59937E-09  3232   0.127E-04    0.674E-05
DAV:  14    -0.137958499109E+04   -0.69806E-07   -0.50338E-09  3264   0.928E-05    0.461E-05
DAV:  15    -0.137958499113E+04   -0.40629E-07   -0.18811E-09  3072   0.592E-05    0.298E-05
DAV:  16    -0.137958499115E+04   -0.20809E-07   -0.83193E-10  3072   0.462E-05    0.160E-05
DAV:  17    -0.137958499116E+04   -0.12573E-07   -0.14917E-10  3008   0.314E-05    0.150E-05
DAV:  18    -0.137958499117E+04   -0.12340E-07    0.24697E-10  3072   0.200E-05    0.149E-05
DAV:  19    -0.137958499118E+04   -0.33469E-08    0.63966E-10  2848   0.160E-05
  35 F= -.13988428E+04 E0= -.13988428E+04  d E =-.121251E-03  mag=    -0.0000
       N       E                     dE             d eps       ncg     rms          rms(c)
DAV:   1    -0.137958542641E+04   -0.43524E-03   -0.78118E-02  4640   0.142E-01    0.107E-01
DAV:   2    -0.137958535403E+04    0.72382E-04   -0.93675E-04  4864   0.170E-02    0.636E-02
DAV:   3    -0.137958533604E+04    0.17993E-04   -0.49548E-04  5088   0.123E-02    0.203E-02
DAV:   4    -0.137958532607E+04    0.99706E-05   -0.57943E-05  4864   0.442E-03    0.124E-02
DAV:   5    -0.137958532520E+04    0.86300E-06   -0.17463E-05  5472   0.251E-03    0.265E-03
DAV:   6    -0.137958532521E+04   -0.48894E-08   -0.13798E-06  4960   0.787E-04    0.115E-03
DAV:   7    -0.137958532531E+04   -0.10198E-06   -0.22915E-07  4448   0.302E-04    0.792E-04
DAV:   8    -0.137958532543E+04   -0.11589E-06   -0.42224E-08  3936   0.189E-04    0.249E-04
DAV:   9    -0.137958532553E+04   -0.10380E-06   -0.18523E-08  3712   0.136E-04    0.172E-04
DAV:  10    -0.137958532563E+04   -0.95853E-07   -0.46154E-09  3264   0.920E-05    0.844E-05
DAV:  11    -0.137958532570E+04   -0.74258E-07   -0.32683E-09  3200   0.862E-05    0.516E-05
DAV:  12    -0.137958532578E+04   -0.77926E-07   -0.54298E-09  3328   0.110E-04    0.374E-05
DAV:  13    -0.137958532582E+04   -0.38926E-07   -0.48398E-09  3168   0.119E-04    0.329E-05
DAV:  14    -0.137958532584E+04   -0.20940E-07   -0.33146E-09  3136   0.101E-04    0.187E-05
DAV:  15    -0.137958532585E+04   -0.14945E-07   -0.14187E-09  3040   0.651E-05    0.195E-05
DAV:  16    -0.137958532586E+04   -0.60099E-08   -0.18774E-11  3072   0.335E-05
  36 F= -.13988431E+04 E0= -.13988431E+04  d E =-.263474E-03  mag=     0.0000
       N       E                     dE             d eps       ncg     rms          rms(c)
DAV:   1    -0.137958498510E+04    0.34075E-03   -0.78955E-02  4736   0.144E-01    0.110E-01
DAV:   2    -0.137958489577E+04    0.89333E-04   -0.90874E-04  4800   0.170E-02    0.648E-02
DAV:   3    -0.137958487434E+04    0.21428E-04   -0.52568E-04  4768   0.127E-02    0.217E-02
DAV:   4    -0.137958486354E+04    0.10801E-04   -0.58747E-05  4864   0.437E-03    0.137E-02
DAV:   5    -0.137958486219E+04    0.13523E-05   -0.18930E-05  5024   0.250E-03    0.304E-03
DAV:   6    -0.137958486218E+04    0.64028E-08   -0.16670E-06  4736   0.821E-04    0.112E-03
DAV:   7    -0.137958486229E+04   -0.10955E-06   -0.31970E-07  4544   0.339E-04    0.824E-04
DAV:   8    -0.137958486252E+04   -0.22749E-06   -0.60274E-08  3968   0.215E-04    0.265E-04
DAV:   9    -0.137958486275E+04   -0.22459E-06   -0.30144E-08  3840   0.154E-04    0.236E-04
DAV:  10    -0.137958486303E+04   -0.28871E-06   -0.16215E-08  3744   0.142E-04    0.999E-05
DAV:  11    -0.137958486321E+04   -0.17251E-06   -0.94284E-09  3488   0.147E-04    0.745E-05
DAV:  12    -0.137958486339E+04   -0.17765E-06   -0.13540E-08  3968   0.171E-04    0.574E-05
DAV:  13    -0.137958486349E+04   -0.10766E-06   -0.66242E-09  3296   0.135E-04    0.466E-05
DAV:  14    -0.137958486356E+04   -0.71363E-07   -0.24259E-09  3136   0.757E-05    0.299E-05
DAV:  15    -0.137958486362E+04   -0.55414E-07   -0.23933E-09  3200   0.758E-05    0.235E-05
DAV:  16    -0.137958486365E+04   -0.27663E-07   -0.92030E-10  3072   0.541E-05    0.200E-05
DAV:  17    -0.137958486366E+04   -0.16546E-07   -0.14229E-10  3072   0.372E-05    0.137E-05
DAV:  18    -0.137958486367E+04   -0.78289E-08    0.32879E-10  3072   0.219E-05
  37 F= -.13988425E+04 E0= -.13988425E+04  d E =0.618649E-03  mag=     0.0000
       N       E                     dE             d eps       ncg     rms          rms(c)
DAV:   1    -0.137958541555E+04   -0.55189E-03   -0.78850E-02  5088   0.182E-01    0.112E-01
DAV:   2    -0.137958534105E+04    0.74506E-04   -0.11556E-03  5312   0.238E-02    0.671E-02
DAV:   3    -0.137958531770E+04    0.23349E-04   -0.67466E-04  5472   0.162E-02    0.238E-02
DAV:   4    -0.137958530432E+04    0.13375E-04   -0.92123E-05  5408   0.592E-03    0.156E-02
DAV:   5    -0.137958530209E+04    0.22324E-05   -0.29302E-05  5440   0.341E-03    0.330E-03
DAV:   6    -0.137958530229E+04   -0.20194E-06   -0.27464E-06  5344   0.109E-03    0.124E-03
DAV:   7    -0.137958530252E+04   -0.22346E-06   -0.46226E-07  4720   0.448E-04    0.933E-04
DAV:   8    -0.137958530282E+04   -0.30504E-06   -0.13345E-07  3904   0.260E-04    0.275E-04
DAV:   9    -0.137958530303E+04   -0.21026E-06   -0.30107E-08  3872   0.148E-04    0.208E-04
DAV:  10    -0.137958530328E+04   -0.24660E-06   -0.10709E-08  3456   0.998E-05    0.113E-04
DAV:  11    -0.137958530346E+04   -0.18501E-06   -0.78207E-09  3392   0.992E-05    0.766E-05
DAV:  12    -0.137958530368E+04   -0.21169E-06   -0.17888E-08  4000   0.168E-04    0.622E-05
DAV:  13    -0.137958530374E+04   -0.61715E-07   -0.71818E-09  3328   0.162E-04    0.515E-05
DAV:  14    -0.137958530381E+04   -0.71654E-07   -0.33987E-09  3168   0.874E-05    0.483E-05
DAV:  15    -0.137958530385E+04   -0.42666E-07   -0.13266E-09  3104   0.625E-05    0.260E-05
DAV:  16    -0.137958530388E+04   -0.27547E-07   -0.74274E-10  3072   0.519E-05    0.261E-05
DAV:  17    -0.137958530390E+04   -0.24491E-07   -0.13876E-10  3072   0.385E-05    0.216E-05
DAV:  18    -0.137958530391E+04   -0.77707E-08    0.40016E-10  3072   0.227E-05
  38 F= -.13988430E+04 E0= -.13988430E+04  d E =-.545720E-03  mag=    -0.0000
       N       E                     dE             d eps       ncg     rms          rms(c)
DAV:   1    -0.137958544531E+04   -0.14140E-03   -0.76702E-02  5056   0.191E-01    0.103E-01
DAV:   2    -0.137958538547E+04    0.59831E-04   -0.84254E-04  5280   0.217E-02    0.601E-02
DAV:   3    -0.137958537005E+04    0.15428E-04   -0.42462E-04  5632   0.134E-02    0.188E-02
DAV:   4    -0.137958536227E+04    0.77762E-05   -0.50393E-05  5696   0.479E-03    0.116E-02
DAV:   5    -0.137958536141E+04    0.85807E-06   -0.16064E-05  5696   0.277E-03    0.249E-03
DAV:   6    -0.137958536145E+04   -0.36234E-07   -0.11495E-06  5312   0.869E-04    0.116E-03
DAV:   7    -0.137958536153E+04   -0.79963E-07   -0.25496E-07  4640   0.344E-04    0.718E-04
DAV:   8    -0.137958536161E+04   -0.85420E-07   -0.42767E-08  4064   0.214E-04    0.281E-04
DAV:   9    -0.137958536168E+04   -0.70024E-07   -0.14633E-08  3648   0.143E-04    0.130E-04
DAV:  10    -0.137958536174E+04   -0.58484E-07   -0.45008E-09  3168   0.108E-04    0.830E-05
DAV:  11    -0.137958536179E+04   -0.47119E-07   -0.25071E-09  3104   0.957E-05    0.649E-05
DAV:  12    -0.137958536185E+04   -0.59692E-07   -0.44674E-09  3216   0.124E-04    0.449E-05
DAV:  13    -0.137958536188E+04   -0.34313E-07   -0.42289E-09  3200   0.117E-04    0.429E-05
DAV:  14    -0.137958536190E+04   -0.16487E-07   -0.16282E-09  3072   0.770E-05    0.331E-05
DAV:  15    -0.137958536191E+04   -0.10376E-07   -0.60253E-10  3072   0.470E-05    0.254E-05
DAV:  16    -0.137958536192E+04   -0.63446E-08    0.12969E-11  3040   0.324E-05
  39 F= -.13988432E+04 E0= -.13988432E+04  d E =-.135157E-03  mag=     0.0000
       N       E                     dE             d eps       ncg     rms          rms(c)
DAV:   1    -0.137958491900E+04    0.44291E-03   -0.78212E-02  4992   0.193E-01    0.111E-01
DAV:   2    -0.137958482551E+04    0.93491E-04   -0.91237E-04  5248   0.223E-02    0.632E-02
DAV:   3    -0.137958480677E+04    0.18733E-04   -0.49539E-04  5440   0.142E-02    0.210E-02
DAV:   4    -0.137958479776E+04    0.90095E-05   -0.55474E-05  5376   0.492E-03    0.133E-02
DAV:   5    -0.137958479700E+04    0.76828E-06   -0.17450E-05  5664   0.281E-03    0.286E-03
DAV:   6    -0.137958479698E+04    0.17724E-07   -0.14390E-06  5216   0.992E-04    0.113E-03
DAV:   7    -0.137958479700E+04   -0.20518E-07   -0.26769E-07  5088   0.390E-04    0.752E-04
DAV:   8    -0.137958479704E+04   -0.38854E-07   -0.43364E-08  3904   0.200E-04    0.290E-04
DAV:   9    -0.137958479707E+04   -0.34997E-07   -0.13662E-08  3648   0.134E-04    0.141E-04
DAV:  10    -0.137958479712E+04   -0.48836E-07   -0.56803E-09  3264   0.104E-04    0.990E-05
DAV:  11    -0.137958479716E+04   -0.35041E-07   -0.17817E-09  3072   0.783E-05    0.753E-05
DAV:  12    -0.137958479721E+04   -0.51470E-07   -0.42697E-09  3264   0.977E-05    0.566E-05
DAV:  13    -0.137958479723E+04   -0.26470E-07   -0.27555E-09  3104   0.890E-05    0.497E-05
DAV:  14    -0.137958479725E+04   -0.19980E-07   -0.16229E-09  3072   0.664E-05    0.392E-05
DAV:  15    -0.137958479727E+04   -0.12209E-07   -0.64402E-10  3072   0.460E-05    0.271E-05
DAV:  16    -0.137958479728E+04   -0.13169E-07   -0.30982E-10  3072   0.327E-05    0.147E-05
DAV:  17    -0.137958479728E+04   -0.60390E-08    0.17661E-10  2944   0.245E-05
  40 F= -.13988424E+04 E0= -.13988424E+04  d E =0.755113E-03  mag=    -0.0000
       N       E                     dE             d eps       ncg     rms          rms(c)
DAV:   1    -0.137958526073E+04   -0.46345E-03   -0.78479E-02  4992   0.194E-01    0.111E-01
DAV:   2    -0.137958521195E+04    0.48782E-04   -0.13163E-03  5440   0.264E-02    0.677E-02
DAV:   3    -0.137958518125E+04    0.30700E-04   -0.70947E-04  5728   0.184E-02    0.233E-02
DAV:   4    -0.137958517031E+04    0.10936E-04   -0.89076E-05  5792   0.705E-03    0.154E-02
DAV:   5    -0.137958516826E+04    0.20514E-05   -0.27181E-05  5536   0.376E-03    0.420E-03
DAV:   6    -0.137958516836E+04   -0.10224E-06   -0.27191E-06  5632   0.125E-03    0.143E-03
DAV:   7    -0.137958516854E+04   -0.17953E-06   -0.52529E-07  5280   0.568E-04    0.858E-04
DAV:   8    -0.137958516871E+04   -0.16663E-06   -0.79999E-08  3968   0.243E-04    0.393E-04
DAV:   9    -0.137958516882E+04   -0.11525E-06   -0.19032E-08  3744   0.127E-04    0.137E-04
DAV:  10    -0.137958516890E+04   -0.78115E-07   -0.30901E-09  3136   0.760E-05    0.699E-05
DAV:  11    -0.137958516898E+04   -0.76732E-07   -0.23415E-09  3136   0.573E-05    0.548E-05
DAV:  12    -0.137958516905E+04   -0.69020E-07   -0.17091E-09  3072   0.630E-05    0.338E-05
DAV:  13    -0.137958516910E+04   -0.51106E-07   -0.23901E-09  3104   0.735E-05    0.247E-05
DAV:  14    -0.137958516912E+04   -0.20838E-07   -0.86597E-10  3072   0.615E-05    0.217E-05
DAV:  15    -0.137958516914E+04   -0.21420E-07   -0.22633E-10  3072   0.380E-05    0.160E-05
DAV:  16    -0.137958516915E+04   -0.88912E-08    0.42105E-10  3072   0.232E-05
  41 F= -.13988430E+04 E0= -.13988430E+04  d E =-.576647E-03  mag=     0.0000
       N       E                     dE             d eps       ncg     rms          rms(c)
DAV:   1    -0.137958548470E+04   -0.31556E-03   -0.78240E-02  4992   0.174E-01    0.110E-01
DAV:   2    -0.137958537189E+04    0.11281E-03   -0.89882E-04  5312   0.206E-02    0.623E-02
DAV:   3    -0.137958535858E+04    0.13309E-04   -0.49453E-04  5504   0.135E-02    0.211E-02
DAV:   4    -0.137958534797E+04    0.10613E-04   -0.70986E-05  5600   0.612E-03    0.113E-02
DAV:   5    -0.137958534870E+04   -0.72877E-06   -0.12315E-05  6112   0.274E-03    0.276E-03
DAV:   6    -0.137958534885E+04   -0.15466E-06   -0.89126E-07  5440   0.899E-04    0.124E-03
DAV:   7    -0.137958534913E+04   -0.27526E-06   -0.21315E-07  5408   0.438E-04    0.600E-04
DAV:   8    -0.137958534938E+04   -0.25061E-06   -0.28950E-08  3984   0.180E-04    0.363E-04
DAV:   9    -0.137958534968E+04   -0.30582E-06   -0.18602E-08  3744   0.124E-04    0.152E-04
DAV:  10    -0.137958534995E+04   -0.26301E-06   -0.84192E-09  3328   0.929E-05    0.883E-05
DAV:  11    -0.137958535014E+04   -0.19727E-06   -0.54117E-09  3264   0.736E-05    0.734E-05
DAV:  12    -0.137958535027E+04   -0.13034E-06   -0.32014E-09  3168   0.727E-05    0.474E-05
DAV:  13    -0.137958535043E+04   -0.15619E-06   -0.76724E-09  3424   0.772E-05    0.416E-05
DAV:  14    -0.137958535047E+04   -0.37573E-07   -0.12176E-09  3072   0.554E-05    0.271E-05
DAV:  15    -0.137958535050E+04   -0.27751E-07   -0.82223E-10  3072   0.483E-05    0.285E-05
DAV:  16    -0.137958535051E+04   -0.14057E-07   -0.15003E-10  3072   0.419E-05    0.230E-05
DAV:  17    -0.137958535051E+04   -0.39727E-08    0.38947E-10  3072   0.256E-05
  42 F= -.13988431E+04 E0= -.13988431E+04  d E =-.100592E-03  mag=     0.0000
       N       E                     dE             d eps       ncg     rms          rms(c)
DAV:   1    -0.137958504753E+04    0.30298E-03   -0.79920E-02  4992   0.175E-01    0.118E-01
DAV:   2    -0.137958491051E+04    0.13702E-03   -0.11152E-03  5312   0.221E-02    0.663E-02
DAV:   3    -0.137958488659E+04    0.23919E-04   -0.56054E-04  5536   0.140E-02    0.232E-02
DAV:   4    -0.137958487365E+04    0.12941E-04   -0.86903E-05  5568   0.639E-03    0.117E-02
DAV:   5    -0.137958487409E+04   -0.44279E-06   -0.12041E-05  6112   0.294E-03    0.283E-03
DAV:   6    -0.137958487429E+04   -0.20105E-06   -0.99479E-07  5856   0.103E-03    0.130E-03
DAV:   7    -0.137958487470E+04   -0.40623E-06   -0.27184E-07  5344   0.541E-04    0.600E-04
DAV:   8    -0.137958487497E+04   -0.27186E-06   -0.43584E-08  4288   0.254E-04    0.382E-04
DAV:   9    -0.137958487542E+04   -0.44606E-06   -0.24968E-08  4032   0.166E-04    0.193E-04
DAV:  10    -0.137958487575E+04   -0.33622E-06   -0.14145E-08  3616   0.128E-04    0.108E-04
DAV:  11    -0.137958487606E+04   -0.30248E-06   -0.12433E-08  3680   0.107E-04    0.104E-04
DAV:  12    -0.137958487623E+04   -0.17439E-06   -0.47761E-09  3232   0.767E-05    0.697E-05
DAV:  13    -0.137958487647E+04   -0.23868E-06   -0.15921E-08  3808   0.107E-04    0.774E-05
DAV:  14    -0.137958487652E+04   -0.48836E-07   -0.15345E-09  3072   0.688E-05    0.473E-05
DAV:  15    -0.137958487657E+04   -0.50975E-07   -0.20389E-09  3104   0.653E-05    0.482E-05
DAV:  16    -0.137958487661E+04   -0.36278E-07   -0.35575E-10  3072   0.501E-05    0.358E-05
DAV:  17    -0.137958487664E+04   -0.30632E-07   -0.23718E-10  3072   0.434E-05    0.122E-05
DAV:  18    -0.137958487665E+04   -0.16327E-07    0.15469E-10  2944   0.320E-05    0.137E-05
DAV:  19    -0.137958487666E+04   -0.99535E-08    0.46393E-10  3072   0.160E-05
  43 F= -.13988427E+04 E0= -.13988427E+04  d E =0.389153E-03  mag=    -0.0000
       N       E                     dE             d eps       ncg     rms          rms(c)
DAV:   1    -0.137958487057E+04    0.60819E-05   -0.80931E-02  5056   0.193E-01    0.122E-01
DAV:   2    -0.137958475883E+04    0.11174E-03   -0.16143E-03  5376   0.271E-02    0.722E-02
DAV:   3    -0.137958472764E+04    0.31197E-04   -0.74793E-04  5408   0.177E-02    0.277E-02
DAV:   4    -0.137958471040E+04    0.17238E-04   -0.10957E-04  5408   0.662E-03    0.149E-02
[...]
DAV:   3    -0.137958313782E+04    0.10573E-03   -0.56554E-04  5664   0.147E-02    0.251E-02
DAV:   4    -0.137958314630E+04   -0.84867E-05   -0.10724E-04  5760   0.511E-03    0.114E-02
DAV:   5    -0.137958314495E+04    0.13516E-05   -0.19582E-05  5184   0.273E-03    0.394E-03
DAV:   6    -0.137958314580E+04   -0.84475E-06   -0.18656E-06  4736   0.866E-04    0.191E-03
DAV:   7    -0.137958314696E+04   -0.11667E-05   -0.42412E-07  4512   0.550E-04    0.526E-04
DAV:   8    -0.137958314779E+04   -0.82511E-06   -0.12286E-07  4512   0.272E-04    0.386E-04
DAV:   9    -0.137958314886E+04   -0.10730E-05   -0.41443E-08  4000   0.183E-04    0.192E-04
DAV:  10    -0.137958314962E+04   -0.75898E-06   -0.24539E-08  3808   0.151E-04    0.156E-04
DAV:  11    -0.137958315038E+04   -0.76235E-06   -0.30745E-08  3904   0.154E-04    0.880E-05
DAV:  12    -0.137958315078E+04   -0.39513E-06   -0.14511E-08  3616   0.119E-04    0.703E-05
DAV:  13    -0.137958315097E+04   -0.19438E-06   -0.50652E-09  3264   0.802E-05    0.419E-05
DAV:  14    -0.137958315114E+04   -0.16540E-06   -0.59028E-09  3488   0.693E-05    0.317E-05
DAV:  15    -0.137958315119E+04   -0.56330E-07   -0.12300E-09  3072   0.535E-05    0.178E-05
DAV:  16    -0.137958315124E+04   -0.42404E-07   -0.13209E-09  3072   0.554E-05    0.180E-05
DAV:  17    -0.137958315125E+04   -0.15818E-07   -0.34612E-10  3072   0.409E-05    0.138E-05
DAV:  18    -0.137958315126E+04   -0.72614E-08    0.23460E-10  3072   0.206E-05
  60 F= -.13988410E+04 E0= -.13988410E+04  d E =0.194921E-03  mag=    -0.0000
       N       E                     dE             d eps       ncg     rms          rms(c)
DAV:   1    -0.137958290086E+04    0.25039E-03   -0.48653E-01  4928   0.458E-01    0.137E-01
DAV:   2    -0.137958303696E+04   -0.13610E-03   -0.41590E-03  5120   0.417E-02    0.848E-02
DAV:   3    -0.137958293764E+04    0.99315E-04   -0.56177E-04  5568   0.145E-02    0.271E-02
DAV:   4    -0.137958294523E+04   -0.75935E-05   -0.86802E-05  5376   0.479E-03    0.123E-02
DAV:   5    -0.137958294433E+04    0.89953E-06   -0.16198E-05  5056   0.268E-03    0.402E-03
DAV:   6    -0.137958294488E+04   -0.54851E-06   -0.16906E-06  5056   0.877E-04    0.170E-03
DAV:   7    -0.137958294533E+04   -0.44637E-06   -0.32670E-07  4160   0.408E-04    0.513E-04
DAV:   8    -0.137958294568E+04   -0.35373E-06   -0.92343E-08  4384   0.221E-04    0.270E-04
DAV:   9    -0.137958294597E+04   -0.28660E-06   -0.14786E-08  3616   0.125E-04    0.167E-04
DAV:  10    -0.137958294641E+04   -0.44252E-06   -0.27582E-08  4000   0.149E-04    0.101E-04
DAV:  11    -0.137958294660E+04   -0.18376E-06   -0.77806E-09  3488   0.101E-04    0.719E-05
DAV:  12    -0.137958294680E+04   -0.20114E-06   -0.79343E-09  3456   0.943E-05    0.491E-05
DAV:  13    -0.137958294690E+04   -0.10715E-06   -0.36082E-09  3136   0.722E-05    0.342E-05
DAV:  14    -0.137958294698E+04   -0.79657E-07   -0.35104E-09  3136   0.680E-05    0.212E-05
DAV:  15    -0.137958294701E+04   -0.27867E-07   -0.13494E-09  3072   0.564E-05    0.197E-05
DAV:  16    -0.137958294704E+04   -0.25742E-07   -0.73984E-10  3072   0.447E-05    0.111E-05
DAV:  17    -0.137958294704E+04   -0.81054E-08   -0.14109E-10  3072   0.335E-05
  61 F= -.13988405E+04 E0= -.13988405E+04  d E =0.521273E-03  mag=    -0.0000
       N       E                     dE             d eps       ncg     rms          rms(c)
DAV:   1    -0.137958348613E+04   -0.53909E-03   -0.48895E-01  5056   0.516E-01    0.133E-01
DAV:   2    -0.137958370991E+04   -0.22379E-03   -0.47871E-03  5312   0.484E-02    0.896E-02
DAV:   3    -0.137958359352E+04    0.11639E-03   -0.57231E-04  5664   0.167E-02    0.279E-02
DAV:   4    -0.137958360246E+04   -0.89372E-05   -0.15239E-04  5920   0.688E-03    0.109E-02
DAV:   5    -0.137958360150E+04    0.96370E-06   -0.13683E-05  5632   0.250E-03    0.542E-03
DAV:   6    -0.137958360258E+04   -0.10812E-05   -0.22417E-06  5728   0.107E-03    0.191E-03
DAV:   7    -0.137958360375E+04   -0.11709E-05   -0.56655E-07  5088   0.725E-04    0.734E-04
DAV:   8    -0.137958360464E+04   -0.89448E-06   -0.15095E-07  4512   0.318E-04    0.418E-04
DAV:   9    -0.137958360546E+04   -0.81897E-06   -0.42091E-08  4224   0.184E-04    0.267E-04
DAV:  10    -0.137958360643E+04   -0.96616E-06   -0.34534E-08  3840   0.152E-04    0.157E-04
DAV:  11    -0.137958360738E+04   -0.95298E-06   -0.48975E-08  4096   0.157E-04    0.117E-04
DAV:  12    -0.137958360788E+04   -0.50294E-06   -0.17941E-08  3616   0.110E-04    0.727E-05
DAV:  13    -0.137958360825E+04   -0.36330E-06   -0.11521E-08  3424   0.815E-05    0.584E-05
DAV:  14    -0.137958360842E+04   -0.17050E-06   -0.38165E-09  3168   0.674E-05    0.365E-05
DAV:  15    -0.137958360854E+04   -0.12250E-06   -0.31094E-09  3104   0.654E-05    0.344E-05
DAV:  16    -0.137958360860E+04   -0.64145E-07   -0.13109E-09  3072   0.491E-05    0.328E-05
DAV:  17    -0.137958360864E+04   -0.40003E-07   -0.70787E-10  3072   0.485E-05    0.156E-05
DAV:  18    -0.137958360866E+04   -0.14552E-07   -0.43935E-11  3072   0.360E-05    0.269E-05
DAV:  19    -0.137958360866E+04   -0.57626E-08    0.33407E-10  3072   0.209E-05
  62 F= -.13988414E+04 E0= -.13988414E+04  d E =-.875649E-03  mag=     0.0000
       N       E                     dE             d eps       ncg     rms          rms(c)
DAV:   1    -0.137958348188E+04    0.12678E-03   -0.48519E-01  5056   0.518E-01    0.137E-01
DAV:   2    -0.137958359553E+04   -0.11365E-03   -0.39179E-03  5536   0.450E-02    0.850E-02
DAV:   3    -0.137958348649E+04    0.10904E-03   -0.56623E-04  5664   0.184E-02    0.234E-02
DAV:   4    -0.137958349503E+04   -0.85356E-05   -0.12916E-04  6016   0.651E-03    0.105E-02
DAV:   5    -0.137958349359E+04    0.14368E-05   -0.16776E-05  5600   0.302E-03    0.418E-03
DAV:   6    -0.137958349409E+04   -0.50331E-06   -0.19576E-06  5664   0.119E-03    0.198E-03
DAV:   7    -0.137958349454E+04   -0.45069E-06   -0.38889E-07  5056   0.743E-04    0.677E-04
DAV:   8    -0.137958349498E+04   -0.44113E-06   -0.13095E-07  5328   0.417E-04    0.439E-04
DAV:   9    -0.137958349527E+04   -0.28731E-06   -0.18139E-08  3792   0.175E-04    0.245E-04
DAV:  10    -0.137958349573E+04   -0.45587E-06   -0.15404E-08  3520   0.189E-04    0.128E-04
DAV:  11    -0.137958349610E+04   -0.36758E-06   -0.19071E-08  3888   0.187E-04    0.116E-04
DAV:  12    -0.137958349637E+04   -0.27588E-06   -0.14813E-08  3744   0.160E-04    0.750E-05
DAV:  13    -0.137958349650E+04   -0.12798E-06   -0.48668E-09  3168   0.889E-05    0.594E-05
DAV:  14    -0.137958349659E+04   -0.94413E-07   -0.29045E-09  3072   0.605E-05    0.299E-05
DAV:  15    -0.137958349665E+04   -0.57247E-07   -0.19282E-09  3072   0.503E-05    0.240E-05
DAV:  16    -0.137958349668E+04   -0.32014E-07   -0.90722E-10  3072   0.457E-05    0.154E-05
DAV:  17    -0.137958349670E+04   -0.18219E-07   -0.44106E-10  3072   0.409E-05    0.146E-05
DAV:  18    -0.137958349671E+04   -0.11438E-07    0.15666E-10  3072   0.290E-05    0.116E-05
DAV:  19    -0.137958349672E+04   -0.81927E-08    0.28428E-10  3072   0.253E-05
  63 F= -.13988414E+04 E0= -.13988414E+04  d E =0.140382E-04  mag=    -0.0000
       N       E                     dE             d eps       ncg     rms          rms(c)
DAV:   1    -0.137958314615E+04    0.35056E-03   -0.48455E-01  5056   0.508E-01    0.136E-01
DAV:   2    -0.137958326656E+04   -0.12040E-03   -0.41390E-03  5248   0.449E-02    0.833E-02
DAV:   3    -0.137958317159E+04    0.94966E-04   -0.58722E-04  5504   0.159E-02    0.261E-02
DAV:   4    -0.137958317778E+04   -0.61862E-05   -0.96481E-05  5984   0.536E-03    0.106E-02
DAV:   5    -0.137958317686E+04    0.91571E-06   -0.13863E-05  5728   0.259E-03    0.371E-03
DAV:   6    -0.137958317724E+04   -0.37401E-06   -0.16478E-06  5184   0.935E-04    0.151E-03
DAV:   7    -0.137958317750E+04   -0.26268E-06   -0.27775E-07  4528   0.424E-04    0.499E-04
DAV:   8    -0.137958317772E+04   -0.22384E-06   -0.71611E-08  4416   0.239E-04    0.242E-04
DAV:   9    -0.137958317789E+04   -0.16516E-06   -0.13949E-08  3472   0.103E-04    0.159E-04
DAV:  10    -0.137958317813E+04   -0.24076E-06   -0.12040E-08  3552   0.106E-04    0.835E-05
DAV:  11    -0.137958317827E+04   -0.13679E-06   -0.50825E-09  3232   0.741E-05    0.636E-05
DAV:  12    -0.137958317838E+04   -0.11724E-06   -0.39937E-09  3136   0.694E-05    0.397E-05
DAV:  13    -0.137958317847E+04   -0.88534E-07   -0.32716E-09  3168   0.597E-05    0.322E-05
DAV:  14    -0.137958317852E+04   -0.52052E-07   -0.18037E-09  3104   0.501E-05    0.181E-05
DAV:  15    -0.137958317856E+04   -0.38941E-07   -0.13384E-09  3072   0.435E-05    0.198E-05
DAV:  16    -0.137958317857E+04   -0.12282E-07   -0.14800E-10  3072   0.358E-05    0.120E-05
DAV:  17    -0.137958317858E+04   -0.77125E-08    0.11601E-10  3040   0.285E-05
  64 F= -.13988407E+04 E0= -.13988407E+04  d E =0.623617E-03  mag=    -0.0000
       N       E                     dE             d eps       ncg     rms          rms(c)
DAV:   1    -0.137958376963E+04   -0.59105E-03   -0.47320E-01  5056   0.524E-01    0.132E-01
DAV:   2    -0.137958395278E+04   -0.18316E-03   -0.50938E-03  5760   0.514E-02    0.872E-02
DAV:   3    -0.137958383350E+04    0.11929E-03   -0.69931E-04  5952   0.242E-02    0.263E-02
DAV:   4    -0.137958384369E+04   -0.10196E-04   -0.16245E-04  6272   0.916E-03    0.106E-02
DAV:   5    -0.137958384323E+04    0.46482E-06   -0.12363E-05  5856   0.279E-03    0.481E-03
DAV:   6    -0.137958384335E+04   -0.11690E-06   -0.17632E-06  5984   0.131E-03    0.216E-03
DAV:   7    -0.137958384373E+04   -0.38123E-06   -0.47838E-07  5888   0.967E-04    0.904E-04
DAV:   8    -0.137958384414E+04   -0.41415E-06   -0.15660E-07  5216   0.520E-04    0.515E-04
DAV:   9    -0.137958384460E+04   -0.45984E-06   -0.64692E-08  4768   0.383E-04    0.330E-04
DAV:  10    -0.137958384509E+04   -0.48494E-06   -0.28784E-08  4000   0.330E-04    0.182E-04
DAV:  11    -0.137958384558E+04   -0.49749E-06   -0.38326E-08  4416   0.334E-04    0.147E-04
DAV:  12    -0.137958384590E+04   -0.31435E-06   -0.21211E-08  3936   0.211E-04    0.960E-05
DAV:  13    -0.137958384607E+04   -0.16714E-06   -0.52400E-09  3232   0.112E-04    0.600E-05
DAV:  14    -0.137958384621E+04   -0.14546E-06   -0.44046E-09  3232   0.924E-05    0.402E-05
DAV:  15    -0.137958384627E+04   -0.60478E-07   -0.22444E-09  3072   0.720E-05    0.287E-05
DAV:  16    -0.137958384633E+04   -0.57509E-07   -0.21500E-09  3104   0.626E-05    0.213E-05
DAV:  17    -0.137958384635E+04   -0.20154E-07   -0.94838E-10  3072   0.493E-05    0.232E-05
DAV:  18    -0.137958384635E+04   -0.49185E-08   -0.50515E-11  3136   0.367E-05
  65 F= -.13988414E+04 E0= -.13988414E+04  d E =-.686007E-03  mag=    -0.0000
       N       E                     dE             d eps       ncg     rms          rms(c)
DAV:   1    -0.137958409371E+04   -0.24736E-03   -0.48933E-01  5120   0.493E-01    0.137E-01
DAV:   2    -0.137958420593E+04   -0.11222E-03   -0.49750E-03  5536   0.460E-02    0.820E-02
DAV:   3    -0.137958408643E+04    0.11950E-03   -0.80259E-04  5760   0.222E-02    0.256E-02
DAV:   4    -0.137958409380E+04   -0.73672E-05   -0.15361E-04  5920   0.758E-03    0.124E-02
DAV:   5    -0.137958409202E+04    0.17773E-05   -0.16943E-05  6016   0.326E-03    0.532E-03
DAV:   6    -0.137958409234E+04   -0.31781E-06   -0.16929E-06  6032   0.149E-03    0.216E-03
DAV:   7    -0.137958409282E+04   -0.48502E-06   -0.34061E-07  5344   0.599E-04    0.869E-04
DAV:   8    -0.137958409363E+04   -0.80946E-06   -0.14568E-07  5152   0.439E-04    0.474E-04
DAV:   9    -0.137958409427E+04   -0.63960E-06   -0.40835E-08  4192   0.238E-04    0.312E-04
DAV:  10    -0.137958409540E+04   -0.11268E-05   -0.65755E-08  4288   0.256E-04    0.208E-04
DAV:  11    -0.137958409610E+04   -0.70456E-06   -0.47220E-08  4128   0.213E-04    0.144E-04
DAV:  12    -0.137958409670E+04   -0.59750E-06   -0.28159E-08  4032   0.163E-04    0.115E-04
DAV:  13    -0.137958409704E+04   -0.34254E-06   -0.10729E-08  3392   0.968E-05    0.767E-05
DAV:  14    -0.137958409727E+04   -0.22980E-06   -0.65874E-09  3232   0.750E-05    0.379E-05
DAV:  15    -0.137958409739E+04   -0.12350E-06   -0.26422E-09  3072   0.565E-05    0.326E-05
DAV:  16    -0.137958409750E+04   -0.10492E-06   -0.22838E-09  3072   0.515E-05    0.202E-05
DAV:  17    -0.137958409756E+04   -0.56534E-07   -0.13786E-09  3072   0.567E-05    0.161E-05
DAV:  18    -0.137958409758E+04   -0.25815E-07   -0.53835E-10  3072   0.425E-05    0.154E-05
DAV:  19    -0.137958409759E+04   -0.96770E-08    0.24412E-10  3072   0.242E-05
  66 F= -.13988418E+04 E0= -.13988418E+04  d E =-.318135E-03  mag=    -0.0000
       N       E                     dE             d eps       ncg     rms          rms(c)
DAV:   1    -0.137958439651E+04   -0.29893E-03   -0.49131E-01  5120   0.491E-01    0.139E-01
DAV:   2    -0.137958450393E+04   -0.10742E-03   -0.54357E-03  5664   0.506E-02    0.854E-02
DAV:   3    -0.137958436441E+04    0.13952E-03   -0.91991E-04  5888   0.261E-02    0.263E-02
DAV:   4    -0.137958437374E+04   -0.93309E-05   -0.15904E-04  5856   0.943E-03    0.134E-02
DAV:   5    -0.137958437371E+04    0.31709E-07   -0.15765E-05  5888   0.344E-03    0.537E-03
DAV:   6    -0.137958437381E+04   -0.10023E-06   -0.19757E-06  6048   0.176E-03    0.230E-03
DAV:   7    -0.137958437403E+04   -0.22112E-06   -0.44005E-07  6336   0.851E-04    0.918E-04
DAV:   8    -0.137958437428E+04   -0.25400E-06   -0.12478E-07  5536   0.535E-04    0.486E-04
DAV:   9    -0.137958437452E+04   -0.23906E-06   -0.51534E-08  4544   0.381E-04    0.294E-04
DAV:  10    -0.137958437479E+04   -0.27251E-06   -0.14203E-08  3424   0.300E-04    0.183E-04
DAV:  11    -0.137958437508E+04   -0.28303E-06   -0.30802E-08  4448   0.300E-04    0.119E-04
DAV:  12    -0.137958437531E+04   -0.23509E-06   -0.19657E-08  3936   0.224E-04    0.952E-05
DAV:  13    -0.137958437543E+04   -0.11895E-06   -0.93243E-09  3712   0.124E-04    0.690E-05
DAV:  14    -0.137958437550E+04   -0.71275E-07   -0.16074E-09  3136   0.575E-05    0.434E-05
DAV:  15    -0.137958437559E+04   -0.90717E-07   -0.29910E-09  3200   0.529E-05    0.293E-05
DAV:  16    -0.137958437562E+04   -0.24826E-07   -0.39119E-10  3136   0.407E-05    0.227E-05
DAV:  17    -0.137958437566E+04   -0.38897E-07   -0.81854E-10  3072   0.405E-05    0.131E-05
DAV:  18    -0.137958437567E+04   -0.11976E-07   -0.20365E-11  3072   0.324E-05    0.154E-05
DAV:  19    -0.137958437567E+04   -0.22264E-08    0.46513E-10  2944   0.182E-05
  67 F= -.13988421E+04 E0= -.13988421E+04  d E =-.358939E-03  mag=     0.0000
       N       E                     dE             d eps       ncg     rms          rms(c)
DAV:   1    -0.137958303785E+04    0.13378E-02   -0.49904E-01  5120   0.532E-01    0.127E-01
DAV:   2    -0.137958324314E+04   -0.20529E-03   -0.48462E-03  5632   0.477E-02    0.870E-02
DAV:   3    -0.137958311171E+04    0.13143E-03   -0.59144E-04  5824   0.220E-02    0.250E-02
DAV:   4    -0.137958312525E+04   -0.13537E-04   -0.17061E-04  6048   0.834E-03    0.100E-02
DAV:   5    -0.137958312469E+04    0.55345E-06   -0.11976E-05  5792   0.310E-03    0.512E-03
DAV:   6    -0.137958312514E+04   -0.44412E-06   -0.19706E-06  6208   0.160E-03    0.208E-03
DAV:   7    -0.137958312538E+04   -0.24648E-06   -0.50316E-07  5440   0.901E-04    0.814E-04
DAV:   8    -0.137958312585E+04   -0.47052E-06   -0.24461E-07  5824   0.644E-04    0.573E-04
DAV:   9    -0.137958312610E+04   -0.24086E-06   -0.62782E-08  4816   0.315E-04    0.350E-04
DAV:  10    -0.137958312648E+04   -0.38679E-06   -0.22629E-08  4160   0.260E-04    0.202E-04
DAV:  11    -0.137958312688E+04   -0.39392E-06   -0.26800E-08  4224   0.301E-04    0.172E-04
DAV:  12    -0.137958312713E+04   -0.25010E-06   -0.25898E-08  4288   0.223E-04    0.962E-05
DAV:  13    -0.137958312731E+04   -0.18043E-06   -0.65724E-09  3552   0.129E-04    0.730E-05
DAV:  14    -0.137958312744E+04   -0.12960E-06   -0.45509E-09  3264   0.915E-05    0.417E-05
DAV:  15    -0.137958312751E+04   -0.71843E-07   -0.25040E-09  3136   0.707E-05    0.272E-05
DAV:  16    -0.137958312756E+04   -0.48152E-07   -0.15305E-09  3072   0.549E-05    0.257E-05
DAV:  17    -0.137958312758E+04   -0.27707E-07   -0.71254E-10  3072   0.439E-05    0.162E-05
DAV:  18    -0.137958312760E+04   -0.19383E-07   -0.55350E-10  3008   0.459E-05    0.176E-05
DAV:  19    -0.137958312761E+04   -0.35216E-08    0.24317E-10  3072   0.293E-05
  68 F= -.13988409E+04 E0= -.13988409E+04  d E =0.121807E-02  mag=     0.0000
       N       E                     dE             d eps       ncg     rms          rms(c)
DAV:   1    -0.137958340456E+04   -0.27696E-03   -0.48850E-01  4992   0.556E-01    0.141E-01
DAV:   2    -0.137958345264E+04   -0.48081E-04   -0.37993E-03  5376   0.476E-02    0.871E-02
DAV:   3    -0.137958334501E+04    0.10763E-03   -0.74501E-04  5728   0.198E-02    0.219E-02
DAV:   4    -0.137958335217E+04   -0.71574E-05   -0.13657E-04  5856   0.671E-03    0.105E-02
DAV:   5    -0.137958335187E+04    0.30179E-06   -0.13841E-05  6240   0.269E-03    0.446E-03
DAV:   6    -0.137958335253E+04   -0.65786E-06   -0.12014E-06  5552   0.109E-03    0.182E-03
DAV:   7    -0.137958335324E+04   -0.71646E-06   -0.36791E-07  5248   0.554E-04    0.559E-04
DAV:   8    -0.137958335375E+04   -0.50355E-06   -0.63690E-08  4224   0.259E-04    0.324E-04
DAV:   9    -0.137958335426E+04   -0.51186E-06   -0.19785E-08  3872   0.151E-04    0.188E-04
DAV:  10    -0.137958335481E+04   -0.54734E-06   -0.18594E-08  3872   0.113E-04    0.110E-04
DAV:  11    -0.137958335530E+04   -0.49153E-06   -0.18471E-08  3808   0.981E-05    0.767E-05
DAV:  12    -0.137958335555E+04   -0.25032E-06   -0.68502E-09  3168   0.622E-05    0.530E-05
DAV:  13    -0.137958335574E+04   -0.19539E-06   -0.63524E-09  3296   0.539E-05    0.315E-05
DAV:  14    -0.137958335583E+04   -0.84416E-07   -0.22952E-09  3072   0.425E-05    0.216E-05
DAV:  15    -0.137958335588E+04   -0.54773E-07   -0.15120E-09  3072   0.433E-05    0.149E-05
DAV:  16    -0.137958335590E+04   -0.12849E-07   -0.29221E-10  3072   0.371E-05    0.143E-05
DAV:  17    -0.137958335590E+04   -0.71595E-08    0.20761E-10  3072   0.245E-05
  69 F= -.13988411E+04 E0= -.13988411E+04  d E =-.251423E-03  mag=    -0.0000
       N       E                     dE             d eps       ncg     rms          rms(c)
DAV:   1    -0.137958347609E+04   -0.12019E-03   -0.49248E-01  4992   0.563E-01    0.142E-01
DAV:   2    -0.137958349756E+04   -0.21479E-04   -0.37826E-03  5440   0.490E-02    0.880E-02
DAV:   3    -0.137958338497E+04    0.11259E-03   -0.76175E-04  5632   0.214E-02    0.225E-02
DAV:   4    -0.137958339367E+04   -0.86987E-05   -0.13161E-04  5952   0.680E-03    0.996E-03
DAV:   5    -0.137958339398E+04   -0.30996E-06   -0.11886E-05  5696   0.274E-03    0.443E-03
DAV:   6    -0.137958339467E+04   -0.69007E-06   -0.15284E-06  5888   0.132E-03    0.188E-03
DAV:   7    -0.137958339522E+04   -0.54987E-06   -0.32035E-07  5280   0.622E-04    0.560E-04
DAV:   8    -0.137958339565E+04   -0.42836E-06   -0.67814E-08  4832   0.284E-04    0.339E-04
DAV:   9    -0.137958339603E+04   -0.37912E-06   -0.17458E-08  3776   0.156E-04    0.196E-04
DAV:  10    -0.137958339649E+04   -0.45772E-06   -0.23039E-08  4032   0.143E-04    0.119E-04
DAV:  11    -0.137958339678E+04   -0.29616E-06   -0.12841E-08  3648   0.121E-04    0.748E-05
DAV:  12    -0.137958339696E+04   -0.17730E-06   -0.62406E-09  3360   0.851E-05    0.548E-05
DAV:  13    -0.137958339708E+04   -0.11874E-06   -0.42257E-09  3232   0.803E-05    0.344E-05
DAV:  14    -0.137958339716E+04   -0.80792E-07   -0.38148E-09  3136   0.744E-05    0.285E-05
DAV:  15    -0.137958339719E+04   -0.36292E-07   -0.15325E-09  3072   0.535E-05    0.192E-05
DAV:  16    -0.137958339722E+04   -0.29264E-07   -0.98108E-10  3072   0.470E-05    0.195E-05
DAV:  17    -0.137958339723E+04   -0.96188E-08   -0.43650E-11  2944   0.331E-05
  70 F= -.13988409E+04 E0= -.13988409E+04  d E =0.208237E-03  mag=     0.0000
