       N       E                     dE             d eps       ncg     rms          rms(c)
DAV:   1    -0.132918748581E+04   -0.13292E+04   -0.13049E+00  6336   0.974E-01    0.955E-01
DAV:   2    -0.133093318334E+04   -0.17457E+01   -0.11637E+00  6176   0.943E-01    0.409E-01
DAV:   3    -0.133094298662E+04   -0.98033E-02   -0.40887E-02  6720   0.226E-01    0.278E-01
DAV:   4    -0.133094302914E+04   -0.42527E-04   -0.21258E-03  5632   0.572E-02    0.225E-01
DAV:   5    -0.133094303971E+04   -0.10563E-04   -0.20075E-04  6720   0.181E-02    0.189E-01
DAV:   6    -0.133094305315E+04   -0.13443E-04   -0.21962E-05  6720   0.702E-03    0.164E-01
DAV:   7    -0.133094306331E+04   -0.10158E-04   -0.23712E-05  6592   0.835E-03    0.130E-01
DAV:   8    -0.133094306994E+04   -0.66282E-05   -0.16527E-05  6112   0.644E-03    0.107E-01
DAV:   9    -0.133094307487E+04   -0.49291E-05   -0.36913E-06  3872   0.319E-03    0.931E-02
DAV:  10    -0.133094308184E+04   -0.69779E-05   -0.26901E-05  6400   0.835E-03    0.547E-02
DAV:  11    -0.133094308704E+04   -0.51951E-05   -0.28598E-05  6784   0.869E-03    0.195E-02
DAV:  12    -0.133094308822E+04   -0.11842E-05   -0.29581E-06  3648   0.265E-03    0.124E-02
DAV:  13    -0.133094308853E+04   -0.31103E-06   -0.12877E-06  3136   0.170E-03
   1 F= -.13499963E+04 E0= -.13499963E+04  d E =-.475466E-21  mag=     0.0000
