       N       E                     dE             d eps       ncg     rms          rms(c)
DAV:   1    -0.127937904379E+04   -0.12794E+04   -0.12727E+00  6336   0.967E-01    0.957E-01
DAV:   2    -0.128113650967E+04   -0.17575E+01   -0.11362E+00  6336   0.940E-01    0.397E-01
DAV:   3    -0.128114650757E+04   -0.99979E-02   -0.38311E-02  6784   0.220E-01    0.277E-01
DAV:   4    -0.128114653153E+04   -0.23954E-04   -0.19514E-03  5760   0.548E-02    0.224E-01
DAV:   5    -0.128114653702E+04   -0.54900E-05   -0.18865E-04  6976   0.177E-02    0.189E-01
DAV:   6    -0.128114655191E+04   -0.14895E-04   -0.21951E-05  7296   0.702E-03    0.162E-01
DAV:   7    -0.128114656180E+04   -0.98869E-05   -0.21804E-05  6784   0.787E-03    0.131E-01
DAV:   8    -0.128114656954E+04   -0.77375E-05   -0.16188E-05  6976   0.635E-03    0.107E-01
DAV:   9    -0.128114657574E+04   -0.62029E-05   -0.53109E-06  7648   0.349E-03    0.902E-02
DAV:  10    -0.128114658230E+04   -0.65610E-05   -0.13080E-05  6656   0.621E-03    0.604E-02
DAV:  11    -0.128114658779E+04   -0.54872E-05   -0.38140E-05  6560   0.102E-02    0.167E-02
DAV:  12    -0.128114658908E+04   -0.12968E-05   -0.56875E-06  7072   0.303E-03    0.103E-02
DAV:  13    -0.128114658932E+04   -0.23923E-06   -0.60529E-07  7072   0.119E-03    0.546E-03
DAV:  14    -0.128114658936E+04   -0.37704E-07   -0.30471E-07  7136   0.783E-04    0.296E-03
DAV:  15    -0.128114658934E+04    0.22119E-07   -0.39039E-08  3968   0.345E-04    0.127E-03
DAV:  16    -0.128114658936E+04   -0.18670E-07   -0.36050E-08  3872   0.272E-04    0.444E-04
DAV:  17    -0.128114658937E+04   -0.11059E-07   -0.81592E-09  3232   0.124E-04    0.347E-04
DAV:  18    -0.128114658940E+04   -0.31607E-07   -0.39557E-09  3232   0.893E-05    0.305E-04
DAV:  19    -0.128114658940E+04    0.10623E-08   -0.87054E-09  3200   0.141E-04
   1 F= -.12997790E+04 E0= -.12997790E+04  d E =-.129978E+04  mag=     0.0000
       N       E                     dE             d eps       ncg     rms          rms(c)
DAV:   1    -0.128114555430E+04    0.10351E-02   -0.58016E-01  5120   0.861E-01    0.130E-01
DAV:   2    -0.128114583867E+04   -0.28437E-03   -0.48414E-03  5504   0.799E-02    0.924E-02
DAV:   3    -0.128114576908E+04    0.69588E-04   -0.59226E-04  6112   0.400E-02    0.344E-02
DAV:   4    -0.128114577460E+04   -0.55165E-05   -0.11122E-04  5984   0.145E-02    0.159E-02
DAV:   5    -0.128114577134E+04    0.32565E-05   -0.29894E-05  5952   0.788E-03    0.713E-03
DAV:   6    -0.128114577072E+04    0.62257E-06   -0.39219E-06  6432   0.291E-03    0.375E-03
DAV:   7    -0.128114577075E+04   -0.32305E-07   -0.23421E-06  6304   0.228E-03    0.185E-03
DAV:   8    -0.128114577085E+04   -0.10003E-06   -0.37549E-07  5888   0.104E-03    0.116E-03
DAV:   9    -0.128114577114E+04   -0.28938E-06   -0.20864E-07  5216   0.684E-04    0.623E-04
DAV:  10    -0.128114577143E+04   -0.28974E-06   -0.86847E-08  5536   0.499E-04    0.531E-04
DAV:  11    -0.128114577176E+04   -0.32678E-06   -0.59439E-08  5024   0.384E-04    0.246E-04
DAV:  12    -0.128114577209E+04   -0.33362E-06   -0.27694E-08  4032   0.233E-04    0.174E-04
DAV:  13    -0.128114577235E+04   -0.26161E-06   -0.12764E-08  3392   0.133E-04    0.164E-04
DAV:  14    -0.128114577261E+04   -0.26033E-06   -0.14318E-08  3520   0.107E-04    0.772E-05
DAV:  15    -0.128114577279E+04   -0.17854E-06   -0.97286E-09  3328   0.854E-05    0.657E-05
DAV:  16    -0.128114577289E+04   -0.93321E-07   -0.36395E-09  3264   0.554E-05    0.514E-05
DAV:  17    -0.128114577297E+04   -0.87864E-07   -0.43089E-09  3232   0.638E-05    0.347E-05
DAV:  18    -0.128114577300E+04   -0.22832E-07   -0.10821E-09  3264   0.385E-05    0.273E-05
DAV:  19    -0.128114577302E+04   -0.23574E-07   -0.65308E-10  3248   0.279E-05    0.165E-05
DAV:  20    -0.128114577304E+04   -0.17011E-07   -0.27618E-10  3248   0.235E-05    0.891E-06
DAV:  21    -0.128114577305E+04   -0.99099E-08   -0.14242E-10  3136   0.177E-05
   2 F= -.12997781E+04 E0= -.12997781E+04  d E =0.899472E-03  mag=     0.0000
       N       E                     dE             d eps       ncg     rms          rms(c)
DAV:   1    -0.128114539508E+04    0.37796E-03   -0.11581E+00  5120   0.121E+00    0.143E-01
DAV:   2    -0.128114610292E+04   -0.70784E-03   -0.97693E-03  5632   0.106E-01    0.935E-02
DAV:   3    -0.128114599911E+04    0.10381E-03   -0.80621E-04  6464   0.374E-02    0.448E-02
DAV:   4    -0.128114599028E+04    0.88273E-05   -0.18448E-04  5632   0.191E-02    0.167E-02
DAV:   5    -0.128114598725E+04    0.30252E-05   -0.46031E-05  5568   0.964E-03    0.893E-03
DAV:   6    -0.128114598716E+04    0.89669E-07   -0.76653E-06  6144   0.309E-03    0.467E-03
DAV:   7    -0.128114598704E+04    0.12267E-06   -0.24358E-06  6336   0.234E-03    0.238E-03
DAV:   8    -0.128114598725E+04   -0.20309E-06   -0.45251E-07  5968   0.105E-03    0.135E-03
DAV:   9    -0.128114598761E+04   -0.36741E-06   -0.21461E-07  6048   0.689E-04    0.556E-04
DAV:  10    -0.128114598802E+04   -0.41150E-06   -0.53846E-08  4768   0.321E-04    0.409E-04
DAV:  11    -0.128114598849E+04   -0.46121E-06   -0.35023E-08  4320   0.289E-04    0.239E-04
DAV:  12    -0.128114598886E+04   -0.37270E-06   -0.25933E-08  3936   0.201E-04    0.144E-04
DAV:  13    -0.128114598918E+04   -0.32580E-06   -0.14326E-08  3360   0.124E-04    0.104E-04
DAV:  14    -0.128114598941E+04   -0.22535E-06   -0.10379E-08  3296   0.885E-05    0.597E-05
DAV:  15    -0.128114598958E+04   -0.17144E-06   -0.90987E-09  3360   0.769E-05    0.524E-05
DAV:  16    -0.128114598965E+04   -0.67623E-07   -0.28859E-09  3264   0.510E-05    0.408E-05
DAV:  17    -0.128114598968E+04   -0.36118E-07   -0.14708E-09  3264   0.437E-05    0.185E-05
DAV:  18    -0.128114598972E+04   -0.35972E-07   -0.15667E-09  3232   0.413E-05    0.331E-05
DAV:  19    -0.128114598973E+04   -0.12238E-07   -0.44687E-10  3264   0.287E-05    0.251E-05
DAV:  20    -0.128114598974E+04   -0.66502E-08   -0.44675E-10  3168   0.331E-05
   3 F= -.12997784E+04 E0= -.12997784E+04  d E =-.336491E-03  mag=    -0.0000
       N       E                     dE             d eps       ncg     rms          rms(c)
DAV:   1    -0.128114569046E+04    0.29927E-03   -0.11511E+00  5120   0.121E+00    0.130E-01
DAV:   2    -0.128114616795E+04   -0.47749E-03   -0.89775E-03  5600   0.110E-01    0.921E-02
DAV:   3    -0.128114603385E+04    0.13411E-03   -0.10027E-03  6496   0.455E-02    0.433E-02
DAV:   4    -0.128114602732E+04    0.65310E-05   -0.17357E-04  5984   0.185E-02    0.186E-02
DAV:   5    -0.128114602378E+04    0.35367E-05   -0.40025E-05  5728   0.103E-02    0.802E-03
DAV:   6    -0.128114602331E+04    0.46733E-06   -0.53941E-06  5760   0.341E-03    0.405E-03
DAV:   7    -0.128114602398E+04   -0.66923E-06   -0.38397E-06  6240   0.295E-03    0.276E-03
DAV:   8    -0.128114602439E+04   -0.41448E-06   -0.79441E-07  6864   0.128E-03    0.145E-03
DAV:   9    -0.128114602558E+04   -0.11840E-05   -0.34567E-07  5616   0.950E-04    0.797E-04
DAV:  10    -0.128114602682E+04   -0.12426E-05   -0.16069E-07  6128   0.664E-04    0.690E-04
DAV:  11    -0.128114602791E+04   -0.10885E-05   -0.90516E-08  5344   0.452E-04    0.315E-04
DAV:  12    -0.128114602925E+04   -0.13361E-05   -0.85704E-08  4544   0.342E-04    0.237E-04
DAV:  13    -0.128114602992E+04   -0.67508E-06   -0.33908E-08  4096   0.185E-04    0.217E-04
DAV:  14    -0.128114603039E+04   -0.47147E-06   -0.15771E-08  3392   0.105E-04    0.120E-04
DAV:  15    -0.128114603085E+04   -0.45999E-06   -0.23555E-08  3680   0.102E-04    0.797E-05
DAV:  16    -0.128114603103E+04   -0.17999E-06   -0.45938E-09  3264   0.728E-05    0.407E-05
DAV:  17    -0.128114603122E+04   -0.18832E-06   -0.82636E-09  3232   0.710E-05    0.477E-05
DAV:  18    -0.128114603127E+04   -0.53944E-07   -0.18765E-09  3264   0.588E-05    0.330E-05
DAV:  19    -0.128114603132E+04   -0.47468E-07   -0.17135E-09  3264   0.523E-05    0.377E-05
DAV:  20    -0.128114603135E+04   -0.25233E-07   -0.71642E-10  3264   0.384E-05    0.328E-05
DAV:  21    -0.128114603136E+04   -0.10405E-07   -0.16021E-10  3136   0.246E-05    0.156E-05
DAV:  22    -0.128114603136E+04   -0.69267E-08   -0.59361E-11  3072   0.205E-05
   4 F= -.12997781E+04 E0= -.12997781E+04  d E =0.361409E-03  mag=     0.0000
       N       E                     dE             d eps       ncg     rms          rms(c)
DAV:   1    -0.128114509627E+04    0.93509E-03   -0.11603E+00  5120   0.118E+00    0.174E-01
DAV:   2    -0.128114584478E+04   -0.74851E-03   -0.11234E-02  5632   0.112E-01    0.120E-01
DAV:   3    -0.128114566490E+04    0.17988E-03   -0.10606E-03  6208   0.443E-02    0.593E-02
DAV:   4    -0.128114565099E+04    0.13911E-04   -0.27879E-04  6592   0.228E-02    0.209E-02
DAV:   5    -0.128114564737E+04    0.36267E-05   -0.43626E-05  6560   0.889E-03    0.113E-02
DAV:   6    -0.128114564504E+04    0.23239E-05   -0.54819E-06  5696   0.355E-03    0.552E-03
DAV:   7    -0.128114564462E+04    0.42524E-06   -0.39600E-06  6816   0.307E-03    0.198E-03
DAV:   8    -0.128114564490E+04   -0.28583E-06   -0.76996E-07  6048   0.145E-03    0.129E-03
DAV:   9    -0.128114564570E+04   -0.79939E-06   -0.37797E-07  6144   0.119E-03    0.887E-04
DAV:  10    -0.128114564694E+04   -0.12330E-05   -0.31423E-07  6560   0.102E-03    0.537E-04
DAV:  11    -0.128114564835E+04   -0.14189E-05   -0.21482E-07  6208   0.613E-04    0.422E-04
DAV:  12    -0.128114564909E+04   -0.73966E-06   -0.37383E-08  4480   0.206E-04    0.297E-04
DAV:  13    -0.128114564996E+04   -0.86085E-06   -0.34994E-08  4064   0.154E-04    0.160E-04
DAV:  14    -0.128114565073E+04   -0.77733E-06   -0.31090E-08  3648   0.105E-04    0.106E-04
DAV:  15    -0.128114565118E+04   -0.44533E-06   -0.12747E-08  3264   0.745E-05    0.636E-05
DAV:  16    -0.128114565155E+04   -0.37445E-06   -0.14468E-08  3328   0.733E-05    0.437E-05
DAV:  17    -0.128114565173E+04   -0.18123E-06   -0.70856E-09  3232   0.637E-05    0.312E-05
DAV:  18    -0.128114565179E+04   -0.56811E-07   -0.21447E-09  3328   0.510E-05    0.196E-05
DAV:  19    -0.128114565183E+04   -0.37544E-07   -0.11939E-09  3248   0.398E-05    0.188E-05
DAV:  20    -0.128114565185E+04   -0.24316E-07   -0.53200E-10  3264   0.256E-05    0.145E-05
DAV:  21    -0.128114565186E+04   -0.12718E-07   -0.16250E-10  3264   0.226E-05    0.604E-06
DAV:  22    -0.128114565187E+04   -0.26484E-08    0.69696E-11  2960   0.152E-05
   5 F= -.12997781E+04 E0= -.12997781E+04  d E =-.748241E-04  mag=     0.0000
       N       E                     dE             d eps       ncg     rms          rms(c)
DAV:   1    -0.128114530077E+04    0.35109E-03   -0.11763E+00  5120   0.102E+00    0.102E-01
DAV:   2    -0.128114556011E+04   -0.25934E-03   -0.55377E-03  5568   0.733E-02    0.623E-02
DAV:   3    -0.128114546720E+04    0.92911E-04   -0.52717E-04  6208   0.239E-02    0.204E-02
DAV:   4    -0.128114546875E+04   -0.15481E-05   -0.84760E-05  6080   0.859E-03    0.132E-02
DAV:   5    -0.128114546755E+04    0.11990E-05   -0.62025E-06  6208   0.279E-03    0.649E-03
DAV:   6    -0.128114546737E+04    0.18520E-06   -0.16088E-06  6784   0.196E-03    0.194E-03
DAV:   7    -0.128114546754E+04   -0.17627E-06   -0.35035E-07  6768   0.767E-04    0.104E-03
DAV:   8    -0.128114546794E+04   -0.39529E-06   -0.87619E-08  5056   0.376E-04    0.734E-04
DAV:   9    -0.128114546855E+04   -0.61584E-06   -0.62926E-08  4384   0.354E-04    0.320E-04
DAV:  10    -0.128114546897E+04   -0.42186E-06   -0.52329E-08  4608   0.295E-04    0.217E-04
DAV:  11    -0.128114546930E+04   -0.32714E-06   -0.10971E-08  3424   0.107E-04    0.158E-04
DAV:  12    -0.128114546974E+04   -0.43536E-06   -0.23338E-08  3712   0.947E-05    0.100E-04
DAV:  13    -0.128114546995E+04   -0.21225E-06   -0.88801E-09  3456   0.743E-05    0.621E-05
DAV:  14    -0.128114547010E+04   -0.14738E-06   -0.55418E-09  3328   0.581E-05    0.438E-05
DAV:  15    -0.128114547019E+04   -0.92434E-07   -0.29371E-09  3264   0.467E-05    0.297E-05
DAV:  16    -0.128114547026E+04   -0.72949E-07   -0.30817E-09  3296   0.400E-05    0.247E-05
DAV:  17    -0.128114547029E+04   -0.29511E-07   -0.10223E-09  3264   0.311E-05    0.173E-05
DAV:  18    -0.128114547031E+04   -0.20707E-07   -0.53372E-10  3136   0.261E-05    0.957E-06
DAV:  19    -0.128114547032E+04   -0.12238E-07   -0.18256E-10  3200   0.199E-05    0.124E-05
DAV:  20    -0.128114547033E+04   -0.38272E-08    0.45586E-11  2944   0.138E-05
   6 F= -.12997778E+04 E0= -.12997778E+04  d E =0.348344E-03  mag=    -0.0000
       N       E                     dE             d eps       ncg     rms          rms(c)
DAV:   1    -0.128114503191E+04    0.43841E-03   -0.11785E+00  5120   0.104E+00    0.142E-01
DAV:   2    -0.128114535727E+04   -0.32536E-03   -0.67145E-03  5536   0.825E-02    0.901E-02
DAV:   3    -0.128114525822E+04    0.99043E-04   -0.86306E-04  6336   0.393E-02    0.289E-02
DAV:   4    -0.128114526667E+04   -0.84415E-05   -0.14716E-04  6080   0.133E-02    0.189E-02
DAV:   5    -0.128114526298E+04    0.36817E-05   -0.21826E-05  6176   0.599E-03    0.890E-03
DAV:   6    -0.128114526148E+04    0.15003E-05   -0.43547E-06  6688   0.343E-03    0.324E-03
DAV:   7    -0.128114526172E+04   -0.24072E-06   -0.13941E-06  6464   0.179E-03    0.153E-03
DAV:   8    -0.128114526233E+04   -0.60738E-06   -0.29134E-07  6720   0.960E-04    0.103E-03
DAV:   9    -0.128114526346E+04   -0.11327E-05   -0.18685E-07  5312   0.885E-04    0.542E-04
DAV:  10    -0.128114526459E+04   -0.11220E-05   -0.19344E-07  5696   0.766E-04    0.360E-04
DAV:  11    -0.128114526587E+04   -0.12855E-05   -0.15125E-07  5600   0.467E-04    0.374E-04
DAV:  12    -0.128114526657E+04   -0.70255E-06   -0.36321E-08  4032   0.203E-04    0.207E-04
DAV:  13    -0.128114526723E+04   -0.65044E-06   -0.31554E-08  3904   0.139E-04    0.968E-05
DAV:  14    -0.128114526766E+04   -0.43183E-06   -0.14790E-08  3328   0.925E-05    0.726E-05
DAV:  15    -0.128114526794E+04   -0.28453E-06   -0.10381E-08  3328   0.747E-05    0.506E-05
DAV:  16    -0.128114526815E+04   -0.21154E-06   -0.89670E-09  3232   0.884E-05    0.284E-05
DAV:  17    -0.128114526823E+04   -0.72905E-07   -0.37721E-09  3264   0.775E-05    0.311E-05
DAV:  18    -0.128114526826E+04   -0.34241E-07   -0.13317E-09  3328   0.464E-05    0.192E-05
DAV:  19    -0.128114526830E+04   -0.44238E-07   -0.98602E-10  3200   0.362E-05    0.152E-05
DAV:  20    -0.128114526832E+04   -0.16895E-07   -0.18005E-10  3200   0.230E-05    0.129E-05
DAV:  21    -0.128114526833E+04   -0.63883E-08    0.28518E-11  2944   0.156E-05
   7 F= -.12997774E+04 E0= -.12997774E+04  d E =0.375076E-03  mag=    -0.0000
       N       E                     dE             d eps       ncg     rms          rms(c)
DAV:   1    -0.128114557058E+04   -0.30226E-03   -0.11582E+00  5120   0.111E+00    0.197E-01
DAV:   2    -0.128114631346E+04   -0.74288E-03   -0.11662E-02  5760   0.104E-01    0.138E-01
DAV:   3    -0.128114612313E+04    0.19033E-03   -0.12305E-03  6112   0.477E-02    0.668E-02
DAV:   4    -0.128114611804E+04    0.50832E-05   -0.28557E-04  6528   0.208E-02    0.219E-02
DAV:   5    -0.128114611421E+04    0.38389E-05   -0.30163E-05  6592   0.801E-03    0.108E-02
DAV:   6    -0.128114611257E+04    0.16377E-05   -0.61460E-06  5792   0.372E-03    0.454E-03
DAV:   7    -0.128114611279E+04   -0.22138E-06   -0.27127E-06  6784   0.236E-03    0.191E-03
DAV:   8    -0.128114611360E+04   -0.80887E-06   -0.47451E-07  6368   0.106E-03    0.126E-03
DAV:   9    -0.128114611476E+04   -0.11616E-05   -0.29712E-07  5952   0.102E-03    0.785E-04
DAV:  10    -0.128114611654E+04   -0.17783E-05   -0.30106E-07  6032   0.895E-04    0.529E-04
DAV:  11    -0.128114611796E+04   -0.14230E-05   -0.12308E-07  5664   0.487E-04    0.294E-04
DAV:  12    -0.128114611933E+04   -0.13713E-05   -0.75169E-08  4576   0.283E-04    0.193E-04
DAV:  13    -0.128114612041E+04   -0.10764E-05   -0.45257E-08  3968   0.146E-04    0.129E-04
DAV:  14    -0.128114612120E+04   -0.79459E-06   -0.31345E-08  3584   0.112E-04    0.725E-05
DAV:  15    -0.128114612158E+04   -0.37752E-06   -0.12411E-08  3296   0.728E-05    0.543E-05
DAV:  16    -0.128114612184E+04   -0.25428E-06   -0.87987E-09  3360   0.722E-05    0.341E-05
DAV:  17    -0.128114612191E+04   -0.74506E-07   -0.23968E-09  3328   0.480E-05    0.290E-05
DAV:  18    -0.128114612195E+04   -0.43088E-07   -0.10456E-09  3264   0.337E-05    0.166E-05
DAV:  19    -0.128114612200E+04   -0.46988E-07   -0.11235E-09  3200   0.316E-05    0.142E-05
DAV:  20    -0.128114612201E+04   -0.86875E-08   -0.18338E-10  3264   0.218E-05
   8 F= -.12997786E+04 E0= -.12997786E+04  d E =-.118471E-02  mag=     0.0000
       N       E                     dE             d eps       ncg     rms          rms(c)
DAV:   1    -0.128114499878E+04    0.11232E-02   -0.11685E+00  5120   0.109E+00    0.325E-01
DAV:   2    -0.128114564438E+04   -0.64560E-03   -0.11259E-02  5728   0.112E-01    0.264E-01
DAV:   3    -0.128114549753E+04    0.14686E-03   -0.32987E-03  5856   0.968E-02    0.597E-02
DAV:   4    -0.128114544305E+04    0.54480E-04   -0.83399E-04  5792   0.381E-02    0.358E-02
DAV:   5    -0.128114542727E+04    0.15777E-04   -0.16053E-04  6496   0.183E-02    0.172E-02
DAV:   6    -0.128114542510E+04    0.21709E-05   -0.33727E-05  6272   0.786E-03    0.725E-03
DAV:   7    -0.128114542455E+04    0.54787E-06   -0.39997E-06  7040   0.259E-03    0.365E-03
DAV:   8    -0.128114542611E+04   -0.15582E-05   -0.10902E-06  6464   0.143E-03    0.183E-03
DAV:   9    -0.128114542808E+04   -0.19682E-05   -0.41427E-07  5600   0.102E-03    0.988E-04
DAV:  10    -0.128114543114E+04   -0.30626E-05   -0.29337E-07  5600   0.640E-04    0.599E-04
DAV:  11    -0.128114543432E+04   -0.31823E-05   -0.22189E-07  5056   0.568E-04    0.371E-04
DAV:  12    -0.128114543717E+04   -0.28437E-05   -0.18089E-07  4736   0.351E-04    0.332E-04
DAV:  13    -0.128114543878E+04   -0.16098E-05   -0.68632E-08  4480   0.203E-04    0.219E-04
DAV:  14    -0.128114543996E+04   -0.11810E-05   -0.52798E-08  3904   0.171E-04    0.188E-04
DAV:  15    -0.128114544037E+04   -0.41432E-06   -0.11295E-08  3392   0.125E-04    0.108E-04
DAV:  16    -0.128114544075E+04   -0.37556E-06   -0.14985E-08  3552   0.134E-04    0.100E-04
DAV:  17    -0.128114544099E+04   -0.24086E-06   -0.89211E-09  3200   0.128E-04    0.756E-05
DAV:  18    -0.128114544110E+04   -0.10978E-06   -0.47517E-09  3328   0.931E-05    0.312E-05
DAV:  19    -0.128114544116E+04   -0.62952E-07   -0.18641E-09  3264   0.605E-05    0.178E-05
DAV:  20    -0.128114544122E+04   -0.60347E-07   -0.11916E-09  3232   0.395E-05    0.212E-05
DAV:  21    -0.128114544124E+04   -0.20562E-07   -0.25913E-10  3264   0.264E-05    0.203E-05
DAV:  22    -0.128114544126E+04   -0.15643E-07   -0.37455E-11  3200   0.219E-05    0.111E-05
DAV:  23    -0.128114544127E+04   -0.94442E-08    0.40866E-11  3200   0.165E-05
   9 F= -.12997778E+04 E0= -.12997778E+04  d E =0.779982E-03  mag=    -0.0000
       N       E                     dE             d eps       ncg     rms          rms(c)
DAV:   1    -0.128114536401E+04    0.77248E-04   -0.11471E+00  5120   0.108E+00    0.220E-01
DAV:   2    -0.128114633316E+04   -0.96915E-03   -0.12137E-02  5888   0.939E-02    0.162E-01
DAV:   3    -0.128114615955E+04    0.17361E-03   -0.12737E-03  6304   0.443E-02    0.759E-02
DAV:   4    -0.128114614645E+04    0.13095E-04   -0.29083E-04  5920   0.183E-02    0.292E-02
DAV:   5    -0.128114613936E+04    0.70938E-05   -0.11688E-04  5664   0.156E-02    0.116E-02
DAV:   6    -0.128114614105E+04   -0.16890E-05   -0.17883E-05  5568   0.523E-03    0.469E-03
DAV:   7    -0.128114614547E+04   -0.44222E-05   -0.43040E-06  6208   0.279E-03    0.253E-03
DAV:   8    -0.128114614834E+04   -0.28694E-05   -0.68062E-07  6080   0.110E-03    0.145E-03
DAV:   9    -0.128114615452E+04   -0.61821E-05   -0.74994E-07  5024   0.112E-03    0.117E-03
DAV:  10    -0.128114615943E+04   -0.49064E-05   -0.42959E-07  5952   0.682E-04    0.830E-04
DAV:  11    -0.128114616374E+04   -0.43134E-05   -0.49431E-07  5296   0.696E-04    0.565E-04
DAV:  12    -0.128114616695E+04   -0.32031E-05   -0.19906E-07  4480   0.429E-04    0.436E-04
DAV:  13    -0.128114616835E+04   -0.14068E-05   -0.79665E-08  4976   0.246E-04    0.229E-04
DAV:  14    -0.128114616978E+04   -0.14317E-05   -0.71434E-08  4224   0.202E-04    0.189E-04
DAV:  15    -0.128114617038E+04   -0.59546E-06   -0.18615E-08  3808   0.125E-04    0.110E-04
DAV:  16    -0.128114617095E+04   -0.56990E-06   -0.20655E-08  3776   0.103E-04    0.781E-05
DAV:  17    -0.128114617123E+04   -0.28308E-06   -0.78874E-09  3360   0.798E-05    0.556E-05
DAV:  18    -0.128114617134E+04   -0.11118E-06   -0.25953E-09  3264   0.564E-05    0.548E-05
DAV:  19    -0.128114617144E+04   -0.94209E-07   -0.20756E-09  3232   0.509E-05    0.352E-05
DAV:  20    -0.128114617147E+04   -0.34284E-07   -0.78722E-10  3264   0.378E-05    0.248E-05
DAV:  21    -0.128114617150E+04   -0.31621E-07   -0.48353E-10  3200   0.330E-05    0.204E-05
DAV:  22    -0.128114617152E+04   -0.14901E-07   -0.17361E-10  3200   0.235E-05    0.214E-05
DAV:  23    -0.128114617153E+04   -0.73924E-08    0.37370E-11  2944   0.157E-05
  10 F= -.12997781E+04 E0= -.12997781E+04  d E =-.288620E-03  mag=     0.0000
       N       E                     dE             d eps       ncg     rms          rms(c)
DAV:   1    -0.128114614736E+04    0.24156E-04   -0.61173E-01  5120   0.775E-01    0.136E-01
DAV:   2    -0.128114656740E+04   -0.42004E-03   -0.66134E-03  6016   0.731E-02    0.953E-02
DAV:   3    -0.128114644985E+04    0.11755E-03   -0.70199E-04  6144   0.378E-02    0.496E-02
DAV:   4    -0.128114644183E+04    0.80238E-05   -0.18821E-04  5952   0.177E-02    0.194E-02
DAV:   5    -0.128114643531E+04    0.65128E-05   -0.73902E-05  5600   0.149E-02    0.825E-03
DAV:   6    -0.128114643497E+04    0.34254E-06   -0.10830E-05  5568   0.417E-03    0.433E-03
DAV:   7    -0.128114643576E+04   -0.79274E-06   -0.30170E-06  6432   0.251E-03    0.252E-03
DAV:   8    -0.128114643659E+04   -0.82279E-06   -0.45733E-07  5712   0.115E-03    0.156E-03
DAV:   9    -0.128114643831E+04   -0.17246E-05   -0.51172E-07  6016   0.134E-03    0.781E-04
DAV:  10    -0.128114644023E+04   -0.19217E-05   -0.32006E-07  5712   0.803E-04    0.869E-04
DAV:  11    -0.128114644224E+04   -0.20042E-05   -0.25010E-07  5440   0.611E-04    0.443E-04
DAV:  12    -0.128114644344E+04   -0.11981E-05   -0.10197E-07  5104   0.366E-04    0.370E-04
DAV:  13    -0.128114644431E+04   -0.87659E-06   -0.39742E-08  4128   0.246E-04    0.183E-04
DAV:  14    -0.128114644526E+04   -0.94944E-06   -0.30197E-08  3680   0.142E-04    0.110E-04
DAV:  15    -0.128114644600E+04   -0.73256E-06   -0.29681E-08  3616   0.101E-04    0.929E-05
DAV:  16    -0.128114644630E+04   -0.30060E-06   -0.63729E-09  3264   0.759E-05    0.489E-05
DAV:  17    -0.128114644652E+04   -0.22785E-06   -0.70305E-09  3264   0.652E-05    0.454E-05
DAV:  18    -0.128114644660E+04   -0.78508E-07   -0.19406E-09  3264   0.563E-05    0.290E-05
DAV:  19    -0.128114644665E+04   -0.48865E-07   -0.15341E-09  3264   0.448E-05    0.270E-05
DAV:  20    -0.128114644666E+04   -0.12165E-07   -0.37760E-10  3264   0.305E-05    0.192E-05
DAV:  21    -0.128114644668E+04   -0.12849E-07   -0.29082E-10  3200   0.306E-05    0.189E-05
DAV:  22    -0.128114644668E+04   -0.59372E-08   -0.50995E-11  3200   0.217E-05
  11 F= -.12997789E+04 E0= -.12997789E+04  d E =-.782238E-03  mag=    -0.0000
       N       E                     dE             d eps       ncg     rms          rms(c)
DAV:   1    -0.128114649096E+04   -0.44280E-04   -0.72908E-02  5088   0.797E-02    0.703E-02
DAV:   2    -0.128114645879E+04    0.32163E-04   -0.73137E-04  5504   0.952E-03    0.429E-02
DAV:   3    -0.128114639563E+04    0.63164E-04   -0.12800E-04  5760   0.791E-03    0.721E-03
DAV:   4    -0.128114639414E+04    0.14857E-05   -0.87872E-06  5952   0.291E-03    0.385E-03
DAV:   5    -0.128114639455E+04   -0.41025E-06   -0.15882E-06  6048   0.159E-03    0.208E-03
DAV:   6    -0.128114639564E+04   -0.10901E-05   -0.26922E-07  5408   0.695E-04    0.115E-03
DAV:   7    -0.128114639741E+04   -0.17647E-05   -0.29298E-07  5920   0.572E-04    0.725E-04
DAV:   8    -0.128114640003E+04   -0.26225E-05   -0.22807E-07  4768   0.343E-04    0.385E-04
DAV:   9    -0.128114640172E+04   -0.16933E-05   -0.86288E-08  4384   0.213E-04    0.339E-04
DAV:  10    -0.128114640406E+04   -0.23316E-05   -0.15301E-07  4128   0.220E-04    0.185E-04
DAV:  11    -0.128114640524E+04   -0.11821E-05   -0.58138E-08  3936   0.139E-04    0.143E-04
DAV:  12    -0.128114640588E+04   -0.64580E-06   -0.21599E-08  3424   0.930E-05    0.905E-05
DAV:  13    -0.128114640630E+04   -0.41825E-06   -0.11117E-08  3200   0.821E-05    0.530E-05
DAV:  14    -0.128114640663E+04   -0.32398E-06   -0.11920E-08  3328   0.830E-05    0.480E-05
DAV:  15    -0.128114640677E+04   -0.14278E-06   -0.42230E-09  3264   0.604E-05    0.345E-05
DAV:  16    -0.128114640687E+04   -0.10521E-06   -0.29646E-09  3248   0.610E-05    0.249E-05
DAV:  17    -0.128114640690E+04   -0.29613E-07   -0.10442E-09  3264   0.445E-05    0.273E-05
DAV:  18    -0.128114640692E+04   -0.18263E-07   -0.21903E-10  3264   0.270E-05    0.119E-05
DAV:  19    -0.128114640694E+04   -0.17186E-07   -0.10374E-10  3264   0.204E-05    0.973E-06
DAV:  20    -0.128114640695E+04   -0.81345E-08    0.12829E-10  3200   0.133E-05
  12 F= -.12997788E+04 E0= -.12997788E+04  d E =0.105588E-03  mag=     0.0000
       N       E                     dE             d eps       ncg     rms          rms(c)
DAV:   1    -0.128114649927E+04   -0.92331E-04   -0.71780E-02  5152   0.801E-02    0.727E-02
DAV:   2    -0.128114645212E+04    0.47145E-04   -0.59078E-04  5536   0.105E-02    0.435E-02
DAV:   3    -0.128114638843E+04    0.63691E-04   -0.11320E-04  5888   0.104E-02    0.895E-03
DAV:   4    -0.128114638645E+04    0.19871E-05   -0.10430E-05  5984   0.367E-03    0.425E-03
DAV:   5    -0.128114638726E+04   -0.81820E-06   -0.21921E-06  6144   0.229E-03    0.200E-03
DAV:   6    -0.128114638857E+04   -0.13085E-05   -0.37591E-07  6560   0.808E-04    0.123E-03
DAV:   7    -0.128114639103E+04   -0.24604E-05   -0.20425E-07  5408   0.423E-04    0.776E-04
DAV:   8    -0.128114639472E+04   -0.36855E-05   -0.34998E-07  4704   0.508E-04    0.438E-04
DAV:   9    -0.128114639785E+04   -0.31288E-05   -0.24850E-07  4960   0.395E-04    0.431E-04
DAV:  10    -0.128114640069E+04   -0.28434E-05   -0.18888E-07  4416   0.235E-04    0.220E-04
DAV:  11    -0.128114640244E+04   -0.17472E-05   -0.11307E-07  3936   0.158E-04    0.177E-04
DAV:  12    -0.128114640320E+04   -0.76478E-06   -0.29448E-08  3488   0.148E-04    0.948E-05
DAV:  13    -0.128114640382E+04   -0.61495E-06   -0.23825E-08  3360   0.122E-04    0.824E-05
DAV:  14    -0.128114640417E+04   -0.34687E-06   -0.12436E-08  3328   0.109E-04    0.530E-05
DAV:  15    -0.128114640437E+04   -0.20598E-06   -0.68978E-09  3264   0.101E-04    0.355E-05
DAV:  16    -0.128114640448E+04   -0.10422E-06   -0.30386E-09  3264   0.673E-05    0.348E-05
DAV:  17    -0.128114640456E+04   -0.83935E-07   -0.14144E-09  3264   0.473E-05    0.155E-05
DAV:  18    -0.128114640460E+04   -0.43656E-07   -0.81481E-10  3264   0.367E-05    0.224E-05
DAV:  19    -0.128114640462E+04   -0.16342E-07   -0.10465E-10  3264   0.211E-05    0.169E-05
DAV:  20    -0.128114640463E+04   -0.10201E-07    0.44154E-12  3200   0.202E-05    0.954E-06
DAV:  21    -0.128114640463E+04   -0.41764E-08    0.14836E-10  2944   0.129E-05
  13 F= -.12997785E+04 E0= -.12997785E+04  d E =0.318129E-03  mag=    -0.0000
       N       E                     dE             d eps       ncg     rms          rms(c)
DAV:   1    -0.128114594869E+04    0.45594E-03   -0.68605E-02  5152   0.119E-01    0.885E-02
DAV:   2    -0.128114594428E+04    0.44106E-05   -0.84492E-04  5728   0.225E-02    0.505E-02
DAV:   3    -0.128114593424E+04    0.10034E-04   -0.13517E-04  6016   0.146E-02    0.212E-02
DAV:   4    -0.128114593061E+04    0.36327E-05   -0.42763E-05  6624   0.811E-03    0.745E-03
DAV:   5    -0.128114592973E+04    0.87738E-06   -0.62563E-06  6528   0.280E-03    0.301E-03
DAV:   6    -0.128114593032E+04   -0.58326E-06   -0.78468E-07  5728   0.120E-03    0.157E-03
DAV:   7    -0.128114593111E+04   -0.79419E-06   -0.27595E-07  5984   0.594E-04    0.870E-04
DAV:   8    -0.128114593270E+04   -0.15924E-05   -0.16669E-07  4800   0.341E-04    0.548E-04
DAV:   9    -0.128114593435E+04   -0.16480E-05   -0.11831E-07  4640   0.351E-04    0.327E-04
DAV:  10    -0.128114593624E+04   -0.18893E-05   -0.14187E-07  4480   0.366E-04    0.347E-04
DAV:  11    -0.128114593751E+04   -0.12724E-05   -0.64602E-08  4224   0.179E-04    0.156E-04
DAV:  12    -0.128114593847E+04   -0.95139E-06   -0.43220E-08  3648   0.115E-04    0.123E-04
DAV:  13    -0.128114593895E+04   -0.48296E-06   -0.13267E-08  3392   0.949E-05    0.638E-05
DAV:  14    -0.128114593928E+04   -0.33001E-06   -0.85750E-09  3264   0.896E-05    0.457E-05
DAV:  15    -0.128114593946E+04   -0.18148E-06   -0.62373E-09  3264   0.887E-05    0.376E-05
DAV:  16    -0.128114593954E+04   -0.76907E-07   -0.30723E-09  3264   0.712E-05    0.204E-05
DAV:  17    -0.128114593958E+04   -0.42244E-07   -0.13019E-09  3232   0.444E-05    0.162E-05
DAV:  18    -0.128114593959E+04   -0.12908E-07   -0.42317E-10  3264   0.267E-05    0.119E-05
DAV:  19    -0.128114593960E+04   -0.70140E-08   -0.16039E-10  3200   0.189E-05
  14 F= -.12997784E+04 E0= -.12997784E+04  d E =0.924780E-04  mag=     0.0000
       N       E                     dE             d eps       ncg     rms          rms(c)
DAV:   1    -0.128114529759E+04    0.64200E-03   -0.60424E-02  5120   0.122E-01    0.733E-02
DAV:   2    -0.128114535577E+04   -0.58181E-04   -0.41688E-04  5536   0.150E-02    0.434E-02
DAV:   3    -0.128114538522E+04   -0.29447E-04   -0.41241E-05  6016   0.631E-03    0.985E-03
DAV:   4    -0.128114538655E+04   -0.13313E-05   -0.96375E-06  6592   0.351E-03    0.308E-03
DAV:   5    -0.128114538714E+04   -0.59580E-06   -0.75939E-07  6080   0.962E-04    0.178E-03
DAV:   6    -0.128114538880E+04   -0.16529E-05   -0.56855E-07  5072   0.823E-04    0.953E-04
DAV:   7    -0.128114538968E+04   -0.88815E-06   -0.13784E-07  5440   0.462E-04    0.443E-04
DAV:   8    -0.128114539053E+04   -0.84717E-06   -0.46382E-08  4352   0.214E-04    0.266E-04
DAV:   9    -0.128114539149E+04   -0.95533E-06   -0.52660E-08  4192   0.181E-04    0.163E-04
DAV:  10    -0.128114539218E+04   -0.69436E-06   -0.40104E-08  4064   0.150E-04    0.106E-04
DAV:  11    -0.128114539256E+04   -0.37579E-06   -0.12038E-08  3424   0.764E-05    0.671E-05
DAV:  12    -0.128114539290E+04   -0.34489E-06   -0.17259E-08  3584   0.840E-05    0.644E-05
DAV:  13    -0.128114539302E+04   -0.11425E-06   -0.37032E-09  3328   0.666E-05    0.427E-05
DAV:  14    -0.128114539311E+04   -0.91342E-07   -0.30747E-09  3232   0.585E-05    0.325E-05
DAV:  15    -0.128114539317E+04   -0.60449E-07   -0.19005E-09  3232   0.492E-05    0.335E-05
DAV:  16    -0.128114539320E+04   -0.30152E-07   -0.92921E-10  3200   0.348E-05    0.226E-05
DAV:  17    -0.128114539322E+04   -0.19019E-07   -0.53837E-10  3104   0.335E-05    0.127E-05
DAV:  18    -0.128114539323E+04   -0.15178E-07   -0.32644E-10  3200   0.241E-05    0.210E-05
DAV:  19    -0.128114539324E+04   -0.56752E-08    0.49958E-11  3008   0.138E-05
  15 F= -.12997779E+04 E0= -.12997779E+04  d E =0.444314E-03  mag=    -0.0000
       N       E                     dE             d eps       ncg     rms          rms(c)
DAV:   1    -0.128114553024E+04   -0.13700E-03   -0.60241E-02  5120   0.122E-01    0.690E-02
DAV:   2    -0.128114558780E+04   -0.57564E-04   -0.35459E-04  5568   0.146E-02    0.421E-02
DAV:   3    -0.128114562255E+04   -0.34748E-04   -0.30915E-05  6048   0.622E-03    0.635E-03
DAV:   4    -0.128114562366E+04   -0.11171E-05   -0.30942E-06  6720   0.198E-03    0.256E-03
DAV:   5    -0.128114562445E+04   -0.78398E-06   -0.48288E-07  6176   0.104E-03    0.127E-03
DAV:   6    -0.128114562519E+04   -0.73692E-06   -0.14775E-07  5952   0.599E-04    0.665E-04
DAV:   7    -0.128114562606E+04   -0.87667E-06   -0.88352E-08  4800   0.404E-04    0.381E-04
DAV:   8    -0.128114562694E+04   -0.87525E-06   -0.56260E-08  4416   0.272E-04    0.235E-04
DAV:   9    -0.128114562778E+04   -0.84097E-06   -0.45572E-08  4160   0.205E-04    0.161E-04
DAV:  10    -0.128114562840E+04   -0.61688E-06   -0.30109E-08  3872   0.153E-04    0.964E-05
DAV:  11    -0.128114562888E+04   -0.48165E-06   -0.24081E-08  3584   0.122E-04    0.738E-05
DAV:  12    -0.128114562908E+04   -0.20280E-06   -0.71284E-09  3328   0.100E-04    0.507E-05
DAV:  13    -0.128114562923E+04   -0.15025E-06   -0.63726E-09  3296   0.108E-04    0.330E-05
DAV:  14    -0.128114562929E+04   -0.64552E-07   -0.33968E-09  3264   0.867E-05    0.392E-05
DAV:  15    -0.128114562932E+04   -0.26004E-07   -0.93619E-10  3264   0.414E-05    0.275E-05
DAV:  16    -0.128114562935E+04   -0.31272E-07   -0.10061E-09  3200   0.403E-05    0.180E-05
DAV:  17    -0.128114562936E+04   -0.11554E-07   -0.35722E-10  3200   0.261E-05    0.194E-05
DAV:  18    -0.128114562937E+04   -0.35216E-08    0.21157E-11  2944   0.155E-05
  16 F= -.12997780E+04 E0= -.12997780E+04  d E =-.266734E-04  mag=    -0.0000
